 Gaussian 09, Revision A.02,
 Gaussian 09:  EM64L-G09RevA.02 11-Jun-2009

 ---------------------------------------------------
 # opt=tight freq cam-b3lyp/gen scf=qc int=ultrafine
 ---------------------------------------------------

 ---------------------------
 NA+CH3 CAM-B3LYP def2-TZVPD
 ---------------------------
 Symbolic Z-matrix:
 Charge =  0 Multiplicity = 1

 SCF Done:  E(RCAM-B3LYP) =  -531.395903340     a.u. after    8 cycles
 SCF Done:  E(RCAM-B3LYP) =  -531.395906767     a.u. after    3 cycles
 SCF Done:  E(RCAM-B3LYP) =  -531.395877840     a.u. after    5 cycles
 SCF Done:  E(RCAM-B3LYP) =  -531.395907628     a.u. after    3 cycles
 SCF Done:  E(RCAM-B3LYP) =  -531.395907700     a.u. after    2 cycles
 SCF Done:  E(RCAM-B3LYP) =  -531.395907722     a.u. after    2 cycles
 SCF Done:  E(RCAM-B3LYP) =  -531.395907724     a.u. after    2 cycles
 SCF Done:  E(RCAM-B3LYP) =  -531.395907724     a.u. after    2 cycles
 SCF Done:  E(RCAM-B3LYP) =  -531.395907725     a.u. after    2 cycles
 SCF Done:  E(RCAM-B3LYP) =  -531.395907725     a.u. after    2 cycles
 Optimization completed.
    -- Stationary point found.
 Normal termination of Gaussian 09 at Sun Jan  8 04:57:00 2023.

 ----------------------------------------------------------------------
 #N Geom=AllCheck Guess=TCheck SCRF=Check GenChk RCAM-B3LYP/ChkBas Freq
 ----------------------------------------------------------------------

 NA+CH3 CAM-B3LYP def2-TZVPD
 ---------------------------
 Redundant internal coordinates taken from checkpoint file:
 /home/matheusmaximo/Gaussian/subst/CH3/ch3_s0.chk
 Charge =  0 Multiplicity = 1

                         Standard orientation:
 ---------------------------------------------------------------------
 Center     Atomic      Atomic             Coordinates (Angstroms)
 Number     Number       Type             X           Y           Z
 ---------------------------------------------------------------------
      1          6           0        0.073229    0.955993    0.000797
      2          6           0        0.954920   -0.111263   -0.000454
      3          6           0        0.498464   -1.416097   -0.004223
      4          6           0       -0.857535   -1.644102   -0.004683
      5          6           0       -1.764501   -0.581157   -0.002462
      6          6           0       -1.289084    0.743158   -0.001411
      7          1           0        0.470681    1.960381    0.002215
      8          1           0        1.206496   -2.230513   -0.005215
      9          1           0       -1.232103   -2.659914   -0.009674
     10          7           0        2.387264    0.146719    0.002586
     11          8           0        3.137926   -0.809822    0.000989
     12          8           0        2.758628    1.304813    0.006851
     13          7           0       -3.113858   -0.829737   -0.043220
     14          1           0       -3.428452   -1.760638    0.165976
     15          1           0       -3.749147   -0.097455    0.217498
     16          6           0       -2.253555    1.890666   -0.007996
     17          1           0       -1.724777    2.840874   -0.032152
     18          1           0       -2.913443    1.852706   -0.878267
     19          1           0       -2.887160    1.892570    0.883929
 ---------------------------------------------------------------------

 SCF Done:  E(RCAM-B3LYP) =  -531.395907725     a.u. after    1 cycles

 The electronic state is 1-A.
 Alpha  occ. eigenvalues --  -19.22243 -19.22241 -14.62434 -14.42291 -10.31740
 Alpha  occ. eigenvalues --  -10.29614 -10.27349 -10.27165 -10.27034 -10.26364
 Alpha  occ. eigenvalues --  -10.26151  -1.31473  -1.13437  -1.03892  -0.96647
 Alpha  occ. eigenvalues --   -0.89000  -0.86873  -0.79589  -0.76921  -0.71139
 Alpha  occ. eigenvalues --   -0.66266  -0.63130  -0.62369  -0.61154  -0.60842
 Alpha  occ. eigenvalues --   -0.57879  -0.53803  -0.52480  -0.52200  -0.50560
 Alpha  occ. eigenvalues --   -0.49213  -0.46825  -0.46200  -0.42931  -0.41094
 Alpha  occ. eigenvalues --   -0.37601  -0.37343  -0.35852  -0.32986  -0.28756
 Alpha virt. eigenvalues --   -0.03679   0.01373   0.01627   0.03438   0.04285
 Alpha virt. eigenvalues --    0.05610   0.06581   0.06824   0.07205   0.09310
 Alpha virt. eigenvalues --    0.09859   0.10181   0.10496   0.10727   0.12142

 Mulliken atomic charges:
              1
     1  C   -0.245123
     2  C   -0.321393
     3  C   -0.372056
     4  C   -0.448271
     5  C    0.411530
     6  C    0.472867
     7  H    0.443387
     8  H    0.445630
     9  H    0.258262
    10  N    0.893256
    11  O   -0.591424
    12  O   -0.592688
    13  N   -0.386430
    14  H    0.186499
    15  H    0.201251
    16  C   -1.410068
    17  H    0.334095
    18  H    0.360786
    19  H    0.359888
 Sum of Mulliken atomic charges =   0.00000

 Dipole moment (field-independent basis, Debye):
    X=             -7.1059    Y=             -0.8638    Z=              0.6159  Tot=              7.1847
 Quadrupole moment (field-independent basis, Debye-Ang):
   XX=            -68.8010   YY=            -59.0171   ZZ=            -66.3454
   XY=             -0.1262   XZ=             -2.6285   YZ=             -0.6379

  Exact polarizability: 160.385   1.675 117.752   0.205   0.090  63.245
 Approx polarizability: 181.517   2.537 158.666   0.537   0.281  84.628

                     1                      2                      3
                     A                      A                      A
 Frequencies --    61.5089               112.2399               194.4116
 Red. masses --     9.4666                 4.7365                 1.9194
 Frc consts  --     0.0211                 0.0352                 0.0427
 IR Inten    --     0.0170                 0.3039                 0.5152

                     4                      5                      6
                     A                      A                      A
 Frequencies --   201.1272               211.0568               316.5514
 Red. masses --     1.3654                 5.5665                 3.0798
 Frc consts  --     0.0325                 0.1461                 0.1818
 IR Inten    --     1.2154                 0.8121                 1.1076

                     7                      8                      9
                     A                      A                      A
 Frequencies --   323.6700               367.7471               375.3154
 Red. masses --     3.8417                 2.3537                 1.7286
 Frc consts  --     0.2371                 0.1875                 0.1435
 IR Inten    --    11.3445                95.8247                92.0216

                    10                     11                     12
                     A                      A                      A
 Frequencies --   413.2384               424.8133               465.5056
 Red. masses --     1.3298                 3.2784                 2.6774
 Frc consts  --     0.1338                 0.3486                 0.3418
 IR Inten    --   113.1780                 7.6389                 3.5955

                    13                     14                     15
                     A                      A                      A
 Frequencies --   556.4724               560.9176               564.4894
 Red. masses --     4.4133                 4.1426                 3.9823
 Frc consts  --     0.8052                 0.7679                 0.7476
 IR Inten    --     3.0133                 0.5458                 3.1061

                    16                     17                     18
                     A                      A                      A
 Frequencies --   667.7223               744.4837               795.5295
 Red. masses --     7.0098                 3.1991                 4.4581
 Frc consts  --     1.8414                 1.0447                 1.6623
 IR Inten    --     8.6958                 3.5949                11.5124

                    19                     20                     21
                     A                      A                      A
 Frequencies --   798.0799               850.0910               861.7763
 Red. masses --     5.1599                 7.2312                 1.6765
 Frc consts  --     1.9363                 3.0789                 0.7336
 IR Inten    --    22.9788                12.8164                18.4402

                    22                     23                     24
                     A                      A                      A
 Frequencies --   958.0684               967.3532              1006.2959
 Red. masses --     1.4270                 4.9648                 1.3677
 Frc consts  --     0.7717                 2.7373                 0.8160
 IR Inten    --     9.8572                21.4226                 0.4206

                    25                     26                     27
                     A                      A                      A
 Frequencies --  1024.6113              1071.0599              1078.6611
 Red. masses --     1.5396                 1.4874                 1.5286
 Frc consts  --     0.9523                 1.0053                 1.0479
 IR Inten    --     5.7009                 2.5620                 1.2873

                    28                     29                     30
                     A                      A                      A
 Frequencies --  1133.2093              1181.8400              1244.4686
 Red. masses --     1.6974                 1.2385                 4.1015
 Frc consts  --     1.2843                 1.0192                 3.7425
 IR Inten    --    96.8739                13.1485                20.2746

                    31                     32                     33
                     A                      A                      A
 Frequencies --  1316.0519              1346.2281              1372.1818
 Red. masses --     1.4403                 3.0071                 5.3665
 Frc consts  --     1.4698                 3.2109                 5.9534
 IR Inten    --     0.8730               165.9708                 1.5790

                    34                     35                     36
                     A                      A                      A
 Frequencies --  1422.7004              1430.2588              1479.3365
 Red. masses --    11.5820                 1.3016                 2.0293
 Frc consts  --    13.8121                 1.5687                 2.6165
 IR Inten    --   526.8257                 5.3777                 5.0606

                    37                     38                     39
                     A                      A                      A
 Frequencies --  1495.2410              1518.6364              1557.8629
 Red. masses --     1.0424                 1.5350                 2.9554
 Frc consts  --     1.3731                 2.0857                 4.2259
 IR Inten    --     8.8326                 3.9912                69.1748

                    40                     41                     42
                     A                      A                      A
 Frequencies --  1621.7548              1659.0281              1675.5673
 Red. masses --    11.1777                 1.6203                 3.0623
 Frc consts  --    17.3210                 2.6276                 5.0654
 IR Inten    --   231.3596                15.9091               219.3415

                    43                     44                     45
                     A                      A                      A
 Frequencies --  1693.8964              3037.1678              3084.4239
 Red. masses --     5.9406                 1.0425                 1.0990
 Frc consts  --    10.0428                 5.6657                 6.1600
 IR Inten    --   122.4853                24.4624                13.2210

                    46                     47                     48
                     A                      A                      A
 Frequencies --  3145.2917              3194.2105              3234.6935
 Red. masses --     1.0977                 1.0906                 1.0914
 Frc consts  --     6.3980                 6.5559                 6.7283
 IR Inten    --     7.4966                 9.1169                 1.9891

                    49                     50                     51
                     A                      A                      A
 Frequencies --  3248.3819              3618.2222              3722.4330
 Red. masses --     1.0933                 1.0464                 1.1019
 Frc consts  --     6.7972                 8.0713                 8.9956
 IR Inten    --     2.8375                67.5128                36.2898

 - Thermochemistry -
 -------------------
 Temperature   298.150 Kelvin.  Pressure   1.00000 Atm.
 Atom     1 has atomic number  6 and mass  12.00000

 Molecular mass:   152.05858 amu.
 Principal axes and moments of inertia in atomic units:
                           1         2         3
     Eigenvalues --   731.082142448.072793167.25625
           X            0.99986  -0.01656  -0.00194
           Y            0.01656   0.99986  -0.00147
           Z            0.00197   0.00143   1.00000
 This molecule is an asymmetric top.
 Rotational symmetry number  1.
 Warning -- assumption of classical behavior for rotation
           may cause significant error
 Rotational temperatures (Kelvin)      0.11847     0.03538     0.02735
 Rotational constants (GHZ):           2.46859     0.73721     0.56981
 Zero-point vibrational energy     391214.1 (Joules/Mol)
                                   93.50241 (Kcal/Mol)
 Warning -- explicit consideration of  15 degrees of freedom as
           vibrations may cause significant error
 Vibrational temperatures:     88.50   161.49   279.71   289.38   303.66
          (Kelvin)            455.45   465.69   529.11   539.99   594.56
                              611.21   669.76   800.64   807.03   812.17
                              960.70  1071.14  1144.59  1148.26  1223.09
                             1239.90  1378.44  1391.80  1447.83  1474.19
                             1541.01  1551.95  1630.43  1700.40  1790.51
                             1893.50  1936.92  1974.26  2046.95  2057.82
                             2128.43  2151.32  2184.98  2241.41  2333.34
                             2386.97  2410.76  2437.14  4369.80  4437.79
                             4525.37  4595.75  4654.00  4673.69  5205.81
                             5355.74

 Zero-point correction=                           0.149006 (Hartree/Particle)
 Thermal correction to Energy=                    0.158725
 Thermal correction to Enthalpy=                  0.159669
 Thermal correction to Gibbs Free Energy=         0.113994
 Sum of electronic and zero-point Energies=           -531.246902
 Sum of electronic and thermal Energies=              -531.237183
 Sum of electronic and thermal Enthalpies=            -531.236239
 Sum of electronic and thermal Free Energies=         -531.281914

                     E (Thermal)             CV                S
                      KCal/Mol        Cal/Mol-Kelvin    Cal/Mol-Kelvin
 Total                   99.601             37.173             96.132
 Electronic               0.000              0.000              0.000
 Translational            0.889              2.981             40.967
 Rotational               0.889              2.981             30.117
 Vibrational             97.824             31.211             25.047
 Vibration     1          0.597              1.973              4.408
 Vibration     2          0.607              1.939              3.230
 Vibration     3          0.635              1.848              2.185
 Vibration     4          0.638              1.838              2.123
 Vibration     5          0.643              1.824              2.035
 Vibration     6          0.703              1.642              1.328
 Vibration     7          0.708              1.628              1.291
 Vibration     8          0.740              1.539              1.089
 Vibration     9          0.746              1.523              1.058
 Vibration    10          0.777              1.441              0.915
 Vibration    11          0.787              1.416              0.876
 Vibration    12          0.823              1.327              0.750
 Vibration    13          0.912              1.126              0.531
 Vibration    14          0.917              1.116              0.522
 Vibration    15          0.920              1.108              0.515

 Optimization completed.
    -- Stationary point found.
 Normal termination of Gaussian 09 at Sun Jan  8 13:02:28 2023.
