 Gaussian 09, Revision A.02,
 Gaussian 09:  EM64L-G09RevA.02 11-Jun-2009

 ----------------------------------------------------
 # td=(nstates=15) cam-b3lyp/gen scf=qc int=ultrafine
 ----------------------------------------------------

 ---------------------------------------
 NA+cl CAM-B3LYP def2-TZVPD Single point
 ---------------------------------------
 Symbolic Z-matrix:
 Charge =  0 Multiplicity = 1

                         Standard orientation:
 ---------------------------------------------------------------------
 Center     Atomic      Atomic             Coordinates (Angstroms)
 Number     Number       Type             X           Y           Z
 ---------------------------------------------------------------------
      1          6           0       -0.191883   -0.805050   -0.001759
      2          6           0       -1.207747    0.131946   -0.000979
      3          6           0       -0.933043    1.488690   -0.000078
      4          6           0        0.374556    1.908771   -0.001497
      5          6           0        1.434686    0.992960   -0.004010
      6          6           0        1.112190   -0.372742   -0.003153
      7          1           0       -0.428011   -1.857859    0.000172
      8          1           0       -1.748334    2.195715    0.001562
      9          1           0        0.600236    2.967211   -0.004356
     10          7           0       -2.591058   -0.323308    0.001128
     11          8           0       -3.464247    0.521644    0.003960
     12          8           0       -2.795060   -1.521050    0.000106
     13          7           0        2.725927    1.414939   -0.034264
     14          1           0        2.932044    2.382305    0.133068
     15          1           0        3.465086    0.751234    0.112901
     16         17           0        2.398635   -1.538366    0.001467
 ---------------------------------------------------------------------

 SCF Done:  E(RCAM-B3LYP) =  -951.717776429     a.u. after    9 cycles

 Excitation energies and oscillator strengths:

 Excited State   1:      Singlet-A      4.1010 eV  302.33 nm  f=0.0000  <S**2>=0.000
      42 -> 45         0.67271
      42 -> 50        -0.19543
 This state for optimization and/or second-order correction.
 Copying the excited state density for this state as the 1-particle RhoCI density.

 Excited State   2:      Singlet-A      4.3946 eV  282.13 nm  f=0.3313  <S**2>=0.000
      44 -> 45         0.68226

 Excited State   3:      Singlet-A      4.6416 eV  267.11 nm  f=0.0004  <S**2>=0.000
      39 -> 45        -0.12601
      40 -> 45         0.66297
      40 -> 50        -0.18328

 Excited State   4:      Singlet-A      4.7564 eV  260.67 nm  f=0.0245  <S**2>=0.000
      43 -> 45         0.43390
      43 -> 50         0.10809
      44 -> 46         0.52975

 Excited State   5:      Singlet-A      5.4724 eV  226.56 nm  f=0.1054  <S**2>=0.000
      43 -> 45         0.54680
      44 -> 46        -0.43100

 Excited State   6:      Singlet-A      5.7304 eV  216.36 nm  f=0.0064  <S**2>=0.000
      44 -> 47         0.67047

 Excited State   7:      Singlet-A      6.0129 eV  206.20 nm  f=0.0007  <S**2>=0.000
      44 -> 48         0.56599
      44 -> 51         0.17042
      44 -> 52        -0.12023
      44 -> 54         0.14092
      44 -> 55        -0.16534
      44 -> 57         0.11393

 Excited State   8:      Singlet-A      6.2546 eV  198.23 nm  f=0.0989  <S**2>=0.000
      38 -> 45        -0.10597
      43 -> 46         0.48663
      44 -> 49         0.10202
      44 -> 50        -0.46888

 Excited State   9:      Singlet-A      6.4403 eV  192.51 nm  f=0.1584  <S**2>=0.000
      41 -> 45         0.68177

 Excited State  10:      Singlet-A      6.5780 eV  188.48 nm  f=0.0116  <S**2>=0.000
      43 -> 46        -0.10056
      43 -> 47         0.13477
      44 -> 48         0.13512
      44 -> 49         0.54789
      44 -> 51        -0.18056
      44 -> 52        -0.21539
      44 -> 53        -0.11348
      44 -> 55         0.17467

 Excited State  11:      Singlet-A      6.7073 eV  184.85 nm  f=0.1636  <S**2>=0.000
      38 -> 45         0.10939
      43 -> 46         0.33033
      43 -> 48        -0.20118
      44 -> 48         0.21228
      44 -> 49        -0.15939
      44 -> 50         0.31582
      44 -> 51        -0.26336
      44 -> 54        -0.19329

 Excited State  12:      Singlet-A      6.7348 eV  184.10 nm  f=0.1863  <S**2>=0.000
      38 -> 45         0.12608
      43 -> 46         0.34128
      43 -> 48         0.18222
      44 -> 48        -0.17808
      44 -> 49         0.18413
      44 -> 50         0.34115
      44 -> 51         0.24209
      44 -> 54         0.19632

 Excited State  13:      Singlet-A      7.0783 eV  175.16 nm  f=0.0061  <S**2>=0.000
      43 -> 47         0.52780
      43 -> 48         0.18866
      43 -> 52        -0.12071
      43 -> 54         0.15550
      44 -> 52         0.20148
      44 -> 53         0.11696
      44 -> 54        -0.20271

 Excited State  14:      Singlet-A      7.1966 eV  172.28 nm  f=0.0017  <S**2>=0.000
      43 -> 47        -0.31231
      43 -> 48         0.40654
      43 -> 49        -0.18639
      43 -> 55        -0.11493
      44 -> 48         0.13937
      44 -> 49         0.10222
      44 -> 51        -0.15348
      44 -> 52         0.10549
      44 -> 54        -0.26592
      44 -> 55         0.13061

 Excited State  15:      Singlet-A      7.3119 eV  169.56 nm  f=0.0001  <S**2>=0.000
      39 -> 45        -0.31433
      39 -> 46        -0.13621
      40 -> 46        -0.10725
      42 -> 46         0.58670

 The electronic state is 1-A.
 Alpha  occ. eigenvalues -- -101.62178 -19.23163 -19.23159 -14.63403 -14.43212
 Alpha  occ. eigenvalues --  -10.33705 -10.32927 -10.30983 -10.28884 -10.28438
 Alpha  occ. eigenvalues --  -10.27755  -9.55498  -7.31762  -7.30886  -7.30873
 Alpha  occ. eigenvalues --   -1.32456  -1.14452  -1.05695  -0.98993  -0.95993
 Alpha  occ. eigenvalues --   -0.88503  -0.85001  -0.78458  -0.73039  -0.67955
 Alpha  occ. eigenvalues --   -0.64613  -0.63683  -0.62287  -0.62124  -0.58845
 Alpha  occ. eigenvalues --   -0.54895  -0.54361  -0.52734  -0.51723  -0.50757
 Alpha  occ. eigenvalues --   -0.45147  -0.43262  -0.42278  -0.40794  -0.38425
 Alpha  occ. eigenvalues --   -0.38204  -0.36793  -0.33720  -0.29642
 Alpha virt. eigenvalues --   -0.04600  -0.00037   0.01386   0.02550   0.03856
 Alpha virt. eigenvalues --    0.04633   0.05372   0.05981   0.06209   0.06691
 Alpha virt. eigenvalues --    0.07192   0.09157   0.10142   0.10430   0.10815

 Mulliken atomic charges:
              1
     1  C   -0.369275
     2  C   -0.329467
     3  C   -0.461044
     4  C   -0.549344
     5  C    0.588901
     6  C    0.502406
     7  H    0.497292
     8  H    0.438807
     9  H    0.235941
    10  N    0.908414
    11  O   -0.585620
    12  O   -0.588920
    13  N   -0.399181
    14  H    0.188381
    15  H    0.177573
    16  Cl  -0.254861
 Sum of Mulliken atomic charges =   0.00000

 Dipole moment (field-independent basis, Debye):
    X=              5.5168    Y=              3.2229    Z=              0.4218  Tot=              6.4032
 Quadrupole moment (field-independent basis, Debye-Ang):
   XX=            -78.2111   YY=            -63.9552   ZZ=            -71.6603
   XY=              2.6142   XZ=              1.5812   YZ=              0.8176

 Normal termination of Gaussian 09 at Thu Mar  9 06:57:19 2023.
