 Gaussian 09, Revision A.02,
 Gaussian 09:  EM64L-G09RevA.02 11-Jun-2009

 ---------------------------------------------------------------------
 # opt=tight freq cam-b3lyp/gen geom=connectivity scf=qc int=ultrafine
 ---------------------------------------------------------------------

 ----------------------------
 NA+OCH3 CAM-B3LYP def2-TZVPD
 ----------------------------
 Symbolic Z-matrix:
 Charge =  0 Multiplicity = 1

 SCF Done:  E(RCAM-B3LYP) =  -606.599983979     a.u. after    9 cycles
 SCF Done:  E(RCAM-B3LYP) =  -606.608813185     a.u. after    6 cycles
 SCF Done:  E(RCAM-B3LYP) =  -606.614094525     a.u. after    8 cycles
 SCF Done:  E(RCAM-B3LYP) =  -606.604831470     a.u. after    8 cycles
 SCF Done:  E(RCAM-B3LYP) =  -606.615020737     a.u. after    6 cycles
 SCF Done:  E(RCAM-B3LYP) =  -606.615353368     a.u. after    7 cycles
 SCF Done:  E(RCAM-B3LYP) =  -606.616042315     a.u. after    5 cycles
 SCF Done:  E(RCAM-B3LYP) =  -606.616088621     a.u. after    3 cycles
 SCF Done:  E(RCAM-B3LYP) =  -606.616123103     a.u. after    3 cycles
 SCF Done:  E(RCAM-B3LYP) =  -606.616130619     a.u. after    3 cycles
 SCF Done:  E(RCAM-B3LYP) =  -606.616132017     a.u. after    2 cycles
 SCF Done:  E(RCAM-B3LYP) =  -606.616132328     a.u. after    2 cycles
 SCF Done:  E(RCAM-B3LYP) =  -606.616132427     a.u. after    2 cycles
 SCF Done:  E(RCAM-B3LYP) =  -606.616132473     a.u. after    2 cycles
 SCF Done:  E(RCAM-B3LYP) =  -606.616132491     a.u. after    2 cycles
 SCF Done:  E(RCAM-B3LYP) =  -606.616132494     a.u. after    2 cycles
 SCF Done:  E(RCAM-B3LYP) =  -606.616132495     a.u. after    2 cycles
 Optimization completed.
    -- Stationary point found.
 Normal termination of Gaussian 09 at Thu Oct 25 10:32:19 2018.

 ----------------------------------------------------------------------
 #N Geom=AllCheck Guess=TCheck SCRF=Check GenChk RCAM-B3LYP/ChkBas Freq
 ----------------------------------------------------------------------

 NA+OCH3 CAM-B3LYP def2-TZVPD
 ----------------------------
 Redundant internal coordinates taken from checkpoint file:
 /home/matheusmaximo/Gaussian/OCH3/1.chk
 Charge =  0 Multiplicity = 1

                         Standard orientation:
 ---------------------------------------------------------------------
 Center     Atomic      Atomic             Coordinates (Angstroms)
 Number     Number       Type             X           Y           Z
 ---------------------------------------------------------------------
      1          6           0        0.098239    0.718167   -0.003002
      2          6           0        1.153824   -0.187506   -0.001231
      3          6           0        0.941890   -1.548429    0.001407
      4          6           0       -0.355927   -2.020991   -0.001004
      5          6           0       -1.438562   -1.148753   -0.006299
      6          6           0       -1.188495    0.240183   -0.004658
      7          1           0        0.319617    1.772575   -0.000530
      8          1           0        1.785004   -2.221383    0.004432
      9          1           0       -0.540569   -3.087472   -0.004254
     10          7           0        2.514070    0.327811    0.001061
     11          8           0        3.428648   -0.472828    0.005964
     12          8           0        2.665796    1.535692   -0.001769
     13          7           0       -2.732218   -1.584354   -0.047032
     14          1           0       -2.928453   -2.539853    0.189308
     15          1           0       -3.455006   -0.911732    0.139114
     16          8           0       -2.305657    1.014023    0.001757
     17          6           0       -2.144351    2.417967    0.003771
     18          1           0       -3.145397    2.839369    0.007259
     19          1           0       -1.606119    2.751636    0.893795
     20          1           0       -1.612045    2.753756   -0.888848
 ---------------------------------------------------------------------

 SCF Done:  E(RCAM-B3LYP) =  -606.616132495     a.u. after    1 cycles

 The electronic state is 1-A.
 Alpha  occ. eigenvalues --  -19.25265 -19.22254 -19.22243 -14.62450 -14.41741
 Alpha  occ. eigenvalues --  -10.32591 -10.31663 -10.31393 -10.29828 -10.27021
 Alpha  occ. eigenvalues --  -10.26841 -10.26343  -1.31466  -1.17637  -1.13427
 Alpha  occ. eigenvalues --   -1.03209  -0.96555  -0.87795  -0.85955  -0.81064
 Alpha  occ. eigenvalues --   -0.76674  -0.71051  -0.67350  -0.64317  -0.62677
 Alpha  occ. eigenvalues --   -0.61171  -0.60843  -0.58877  -0.57617  -0.56650
 Alpha  occ. eigenvalues --   -0.55241  -0.52899  -0.51045  -0.49398  -0.48841
 Alpha  occ. eigenvalues --   -0.44561  -0.43192  -0.41551  -0.40956  -0.37653
 Alpha  occ. eigenvalues --   -0.37349  -0.35855  -0.31966  -0.27690
 Alpha virt. eigenvalues --   -0.03764   0.01714   0.02351   0.02997   0.04086
 Alpha virt. eigenvalues --    0.05536   0.05984   0.06488   0.07185   0.07218
 Alpha virt. eigenvalues --    0.08970   0.09769   0.10302   0.10565   0.11352

 Mulliken atomic charges:
              1
     1  C   -0.145454
     2  C   -0.388707
     3  C   -0.333039
     4  C   -0.527655
     5  C    0.432894
     6  C    0.257520
     7  H    0.611505
     8  H    0.450411
     9  H    0.261126
    10  N    0.920886
    11  O   -0.597232
    12  O   -0.597482
    13  N   -0.391377
    14  H    0.196824
    15  H    0.211802
    16  O   -0.456359
    17  C   -0.878277
    18  H    0.262506
    19  H    0.357006
    20  H    0.353103
 Sum of Mulliken atomic charges =   0.00000

 Dipole moment (field-independent basis, Debye):
    X=             -6.3684    Y=             -1.0060    Z=              0.5806  Tot=              6.4735
 Quadrupole moment (field-independent basis, Debye-Ang):
   XX=            -78.7054   YY=            -58.9220   ZZ=            -71.5603
   XY=             -2.7751   XZ=             -2.1399   YZ=             -1.2106

  Exact polarizability: 163.045   6.777 131.381   0.391  -0.004  66.136
 Approx polarizability: 189.653   5.939 168.687   0.834   0.022  87.968

                     1                      2                      3
                     A                      A                      A
 Frequencies --    59.7756                96.3022               117.1347
 Red. masses --     9.4153                 3.4901                 5.5777
 Frc consts  --     0.0198                 0.0191                 0.0451
 IR Inten    --     0.2301                 4.6157                 0.4804

                     4                      5                      6
                     A                      A                      A
 Frequencies --   171.1957               198.0339               263.6828
 Red. masses --     4.8037                 1.9691                 1.5999
 Frc consts  --     0.0829                 0.0455                 0.0655
 IR Inten    --     4.1357                 0.8729                 1.3386

                     7                      8                      9
                     A                      A                      A
 Frequencies --   265.8011               329.1926               345.7494
 Red. masses --     4.1326                 1.4397                 3.8905
 Frc consts  --     0.1720                 0.0919                 0.2740
 IR Inten    --     4.9335               191.9447                 0.9698

                    10                     11                     12
                     A                      A                      A
 Frequencies --   361.2885               372.3435               449.4208
 Red. masses --     4.1386                 4.8979                 1.0816
 Frc consts  --     0.3183                 0.4001                 0.1287
 IR Inten    --    56.5226                27.0610                39.7732

                    13                     14                     15
                     A                      A                      A
 Frequencies --   475.9104               503.0219               547.2407
 Red. masses --     2.9872                 5.6733                 5.3331
 Frc consts  --     0.3986                 0.8458                 0.9410
 IR Inten    --     2.5002                 0.4725                 4.0699

                    16                     17                     18
                     A                      A                      A
 Frequencies --   584.6757               588.1681               666.1931
 Red. masses --     4.1589                 4.5023                 7.3467
 Frc consts  --     0.8376                 0.9177                 1.9211
 IR Inten    --     3.6934                 1.8337                 8.1806

                    19                     20                     21
                     A                      A                      A
 Frequencies --   761.6249               793.4599               822.7458
 Red. masses --     3.2411                 4.6518                 5.5106
 Frc consts  --     1.1077                 1.7255                 2.1978
 IR Inten    --     7.6116                28.4743                41.6727

                    22                     23                     24
                     A                      A                      A
 Frequencies --   850.1793               860.3136               928.9518
 Red. masses --     5.8463                 1.8332                 1.5383
 Frc consts  --     2.4897                 0.7994                 0.7821
 IR Inten    --     5.8571                12.2898                20.0248

                    25                     26                     27
                     A                      A                      A
 Frequencies --   964.3148               994.5953              1068.4958
 Red. masses --     5.3429                 1.3718                 1.7372
 Frc consts  --     2.9273                 0.7995                 1.1686
 IR Inten    --     8.3648                 0.1853                 7.3498

                    28                     29                     30
                     A                      A                      A
 Frequencies --  1093.5073              1136.8151              1174.3304
 Red. masses --     2.7608                 2.2266                 1.2543
 Frc consts  --     1.9451                 1.6954                 1.0191
 IR Inten    --    31.0165               148.2586                 7.8247

                    31                     32                     33
                     A                      A                      A
 Frequencies --  1184.7770              1221.3623              1286.5937
 Red. masses --     1.2772                 1.4442                 5.5119
 Frc consts  --     1.0563                 1.2693                 5.3757
 IR Inten    --     0.9786                 1.8527               228.4221

                    34                     35                     36
                     A                      A                      A
 Frequencies --  1310.2562              1350.2684              1406.9429
 Red. masses --     1.5211                 3.1724                 6.0286
 Frc consts  --     1.5386                 3.4078                 7.0310
 IR Inten    --     4.4293               186.8739               252.3705

                    37                     38                     39
                     A                      A                      A
 Frequencies --  1421.7345              1479.3339              1501.0136
 Red. masses --     7.5599                 1.6387                 1.0475
 Frc consts  --     9.0034                 2.1129                 1.3905
 IR Inten    --   355.6121                 3.0396                10.0720

                    40                     41                     42
                     A                      A                      A
 Frequencies --  1501.5772              1514.4536              1575.3814
 Red. masses --     1.7897                 1.1754                 3.1906
 Frc consts  --     2.3775                 1.5884                 4.6654
 IR Inten    --     1.7055                31.6162               141.8435

                    43                     44                     45
                     A                      A                      A
 Frequencies --  1621.5960              1638.3178              1677.8285
 Red. masses --    11.8711                 1.4573                 3.8818
 Frc consts  --    18.3920                 2.3045                 6.4384
 IR Inten    --   355.6719                50.6991               249.1655

                    46                     47                     48
                     A                      A                      A
 Frequencies --  1686.9924              3041.5550              3104.3598
 Red. masses --     8.0765                 1.0341                 1.1067
 Frc consts  --    13.5425                 5.6362                 6.2839
 IR Inten    --    12.3006                35.7597                21.8939

                    49                     50                     51
                     A                      A                      A
 Frequencies --  3166.2990              3198.9246              3252.0411
 Red. masses --     1.1014                 1.0906                 1.0932
 Frc consts  --     6.5055                 6.5756                 6.8118
 IR Inten    --    14.0828                 8.6914                 2.9635

                    52                     53                     54
                     A                      A                      A
 Frequencies --  3266.3167              3617.6171              3729.9235
 Red. masses --     1.0906                 1.0454                 1.1033
 Frc consts  --     6.8554                 8.0605                 9.0433
 IR Inten    --     5.9304                92.0246                50.7283

 - Thermochemistry -
 -------------------
 Temperature   298.150 Kelvin.  Pressure   1.00000 Atm.
 Atom     1 has atomic number  6 and mass  12.00000

 Molecular mass:   168.05349 amu.
 Principal axes and moments of inertia in atomic units:
                           1         2         3
     Eigenvalues --  1126.510802662.603853777.06867
           X            0.99978  -0.02085  -0.00141
           Y            0.02085   0.99978  -0.00177
           Z            0.00145   0.00174   1.00000
 This molecule is an asymmetric top.
 Rotational symmetry number  1.
 Warning -- assumption of classical behavior for rotation
           may cause significant error
 Rotational temperatures (Kelvin)      0.07689     0.03253     0.02293
 Rotational constants (GHZ):           1.60206     0.67781     0.47782
 Zero-point vibrational energy     404337.4 (Joules/Mol)
                                   96.63895 (Kcal/Mol)
 Warning -- explicit consideration of  17 degrees of freedom as
           vibrations may cause significant error
 Vibrational temperatures:     86.00   138.56   168.53   246.31   284.93
          (Kelvin)            379.38   382.43   473.63   497.46   519.81
                              535.72   646.62   684.73   723.74   787.36
                              841.22   846.24   958.50  1095.81  1141.61
                             1183.75  1223.22  1237.80  1336.55  1387.43
                             1431.00  1537.33  1573.31  1635.62  1689.60
                             1704.63  1757.27  1851.12  1885.16  1942.73
                             2024.27  2045.56  2128.43  2159.62  2160.43
                             2178.96  2266.62  2333.11  2357.17  2414.02
                             2427.20  4376.11  4466.48  4555.59  4602.53
                             4678.96  4699.50  5204.94  5366.52

 Zero-point correction=                           0.154004 (Hartree/Particle)
 Thermal correction to Energy=                    0.164723
 Thermal correction to Enthalpy=                  0.165667
 Thermal correction to Gibbs Free Energy=         0.117437
 Sum of electronic and zero-point Energies=           -606.462129
 Sum of electronic and thermal Energies=              -606.451409
 Sum of electronic and thermal Enthalpies=            -606.450465
 Sum of electronic and thermal Free Energies=         -606.498695

                     E (Thermal)             CV                S
                      KCal/Mol        Cal/Mol-Kelvin    Cal/Mol-Kelvin
 Total                  103.365             40.382            101.509
 Electronic               0.000              0.000              0.000
 Translational            0.889              2.981             41.265
 Rotational               0.889              2.981             30.805
 Vibrational            101.588             34.421             29.438
 Vibration     1          0.597              1.973              4.465
 Vibration     2          0.603              1.952              3.528
 Vibration     3          0.608              1.935              3.147
 Vibration     4          0.626              1.878              2.422
 Vibration     5          0.637              1.843              2.151
 Vibration     6          0.670              1.739              1.637
 Vibration     7          0.672              1.736              1.623
 Vibration     8          0.712              1.617              1.264
 Vibration     9          0.724              1.584              1.185
 Vibration    10          0.735              1.552              1.117
 Vibration    11          0.744              1.529              1.070
 Vibration    12          0.808              1.362              0.798
 Vibration    13          0.833              1.303              0.721
 Vibration    14          0.858              1.243              0.651
 Vibration    15          0.902              1.146              0.550
 Vibration    16          0.942              1.065              0.477
 Vibration    17          0.945              1.057              0.470

 Optimization completed.
    -- Stationary point found.
 Normal termination of Gaussian 09 at Thu Oct 25 20:31:36 2018.
