 Gaussian 09, Revision A.02,
 Gaussian 09:  EM64L-G09RevA.02 11-Jun-2009

 ---------------------------------------------------
 # opt=tight freq cam-b3lyp/gen scf=qc int=ultrafine
 ---------------------------------------------------

 ----------------------------
 NA+C6H5 CAM-B3LYP def2-TZVPD
 ----------------------------
 Symbolic Z-matrix:
 Charge =  0 Multiplicity = 1

 SCF Done:  E(RCAM-B3LYP) =  -723.091565919     a.u. after    9 cycles
 SCF Done:  E(RCAM-B3LYP) =  -723.091580631     a.u. after    3 cycles
 SCF Done:  E(RCAM-B3LYP) =  -723.091474989     a.u. after    7 cycles
 SCF Done:  E(RCAM-B3LYP) =  -723.091585461     a.u. after    4 cycles
 SCF Done:  E(RCAM-B3LYP) =  -723.091586496     a.u. after    2 cycles
 SCF Done:  E(RCAM-B3LYP) =  -723.091586582     a.u. after    2 cycles
 SCF Done:  E(RCAM-B3LYP) =  -723.091586588     a.u. after    2 cycles
 SCF Done:  E(RCAM-B3LYP) =  -723.091586590     a.u. after    2 cycles
 SCF Done:  E(RCAM-B3LYP) =  -723.091586590     a.u. after    2 cycles
 Optimization completed.
    -- Stationary point found.
 Normal termination of Gaussian 09 at Tue Jan 10 02:30:17 2023.

 ----------------------------------------------------------------------
 #N Geom=AllCheck Guess=TCheck SCRF=Check GenChk RCAM-B3LYP/ChkBas Freq
 ----------------------------------------------------------------------

 NA+C6H5 CAM-B3LYP def2-TZVPD
 ----------------------------
 Redundant internal coordinates taken from checkpoint file:
 /home/matheusmaximo/Gaussian/subst/C6H5/c6h5_s0.chk
 Charge =  0 Multiplicity = 1

                         Standard orientation:
 ---------------------------------------------------------------------
 Center     Atomic      Atomic             Coordinates (Angstroms)
 Number     Number       Type             X           Y           Z
 ---------------------------------------------------------------------
      1          6           0        0.861423   -0.540897    0.073324
      2          6           0        2.179017   -0.124893    0.040485
      3          6           0        2.501861    1.213155   -0.098693
      4          6           0        1.487060    2.131466   -0.212250
      5          6           0        0.144261    1.737542   -0.185714
      6          6           0       -0.171509    0.372212   -0.030518
      7          1           0        0.646863   -1.592374    0.193165
      8          1           0        3.538110    1.513972   -0.119430
      9          1           0        1.723868    3.181384   -0.329120
     10          7           0        3.242986   -1.111103    0.156948
     11          8           0        4.391590   -0.712492    0.137035
     12          8           0        2.928078   -2.280356    0.266291
     13          7           0       -0.838426    2.686336   -0.295197
     14          1           0       -0.580334    3.587981   -0.655152
     15          1           0       -1.772947    2.384211   -0.509780
     16          6           0       -1.577722   -0.104551   -0.001116
     17          6           0       -2.003826   -1.085263   -0.892244
     18          6           0       -2.488829    0.387699    0.930732
     19          6           0       -3.303097   -1.561296   -0.854375
     20          1           0       -1.308132   -1.474147   -1.624603
     21          6           0       -3.788192   -0.088485    0.968961
     22          1           0       -2.169802    1.136242    1.644483
     23          6           0       -4.199969   -1.063307    0.075470
     24          1           0       -3.615566   -2.323415   -1.556003
     25          1           0       -4.478960    0.297642    1.706996
     26          1           0       -5.215250   -1.435642    0.106215
 ---------------------------------------------------------------------

 SCF Done:  E(RCAM-B3LYP) =  -723.091586590     a.u. after    1 cycles

 The electronic state is 1-A.
 Alpha  occ. eigenvalues --  -19.22357 -19.22356 -14.62556 -14.41988 -10.32153
 Alpha  occ. eigenvalues --  -10.29775 -10.27550 -10.27522 -10.27415 -10.27349
 Alpha  occ. eigenvalues --  -10.26508 -10.26323 -10.26262 -10.26245 -10.26186
 Alpha  occ. eigenvalues --  -10.26117  -1.31597  -1.13567  -1.03913  -0.97175
 Alpha  occ. eigenvalues --   -0.96031  -0.89012  -0.87060  -0.84635  -0.82791
 Alpha  occ. eigenvalues --   -0.77095  -0.73134  -0.70519  -0.69128  -0.66260
 Alpha  occ. eigenvalues --   -0.63821  -0.62099  -0.61278  -0.60874  -0.60049
 Alpha  occ. eigenvalues --   -0.57968  -0.54829  -0.54340  -0.52824  -0.52320
 Alpha  occ. eigenvalues --   -0.50921  -0.50634  -0.49519  -0.48136  -0.45758
 Alpha  occ. eigenvalues --   -0.44997  -0.42421  -0.41965  -0.40961  -0.37752
 Alpha  occ. eigenvalues --   -0.37465  -0.35981  -0.34984  -0.32905  -0.31774
 Alpha  occ. eigenvalues --   -0.28461
 Alpha virt. eigenvalues --   -0.03799  -0.00335   0.01461   0.01829   0.02811
 Alpha virt. eigenvalues --    0.03176   0.04228   0.04992   0.05141   0.05978
 Alpha virt. eigenvalues --    0.06878   0.07196   0.07530   0.07661   0.07990

 Mulliken atomic charges:
              1
     1  C   -0.507290
     2  C   -0.220302
     3  C   -0.359154
     4  C   -0.530220
     5  C    0.346830
     6  C    0.255727
     7  H    0.589245
     8  H    0.446948
     9  H    0.282235
    10  N    0.908067
    11  O   -0.595835
    12  O   -0.590958
    13  N   -0.402748
    14  H    0.178737
    15  H    0.235288
    16  C    0.390422
    17  C   -0.497655
    18  C   -0.431759
    19  C   -0.392901
    20  H    0.395803
    21  C   -0.404140
    22  H    0.378317
    23  C   -0.416526
    24  H    0.313588
    25  H    0.315048
    26  H    0.313233
 Sum of Mulliken atomic charges =   0.00000

 Dipole moment (field-independent basis, Debye):
    X=             -5.4894    Y=              4.2890    Z=             -1.1732  Tot=              7.0644
 Quadrupole moment (field-independent basis, Debye-Ang):
   XX=           -103.3697   YY=            -86.8859   ZZ=            -92.0290
   XY=             11.0196   XZ=             -1.6157   YZ=              0.3693

  Exact polarizability: 233.173  -0.281 172.402  -3.542   6.340 107.578
 Approx polarizability: 259.448   0.843 228.954  -6.479  11.652 149.164

                     1                      2                      3
                     A                      A                      A
 Frequencies --    44.3944                53.1653                79.5602
 Red. masses --     4.2166                11.3879                 5.6970
 Frc consts  --     0.0049                 0.0190                 0.0212
 IR Inten    --     0.5368                 0.0338                 1.2308

                     4                      5                      6
                     A                      A                      A
 Frequencies --   103.8184               117.5716               208.2605
 Red. masses --     4.3518                 5.7447                 6.1790
 Frc consts  --     0.0276                 0.0468                 0.1579
 IR Inten    --     0.3611                 0.0964                 0.8128

                     7                      8                      9
                     A                      A                      A
 Frequencies --   256.1694               277.5211               305.0343
 Red. masses --     5.1031                 5.3272                 5.5695
 Frc consts  --     0.1973                 0.2417                 0.3053
 IR Inten    --     1.5670                 2.8079                 0.7202

                    10                     11                     12
                     A                      A                      A
 Frequencies --   356.8263               374.2449               404.9925
 Red. masses --     3.8998                 5.2381                 1.3452
 Frc consts  --     0.2926                 0.4322                 0.1300
 IR Inten    --    13.7147                22.2867               154.0640

                    13                     14                     15
                     A                      A                      A
 Frequencies --   419.4902               443.7094               450.7397
 Red. masses --     2.1065                 1.3357                 2.8317
 Frc consts  --     0.2184                 0.1549                 0.3390
 IR Inten    --     9.8541                70.8298                20.5022

                    16                     17                     18
                     A                      A                      A
 Frequencies --   504.8700               527.3490               577.2146
 Red. masses --     3.6496                 4.1046                 4.3411
 Frc consts  --     0.5481                 0.6725                 0.8522
 IR Inten    --     5.9595                 4.1684                 0.4394

                    19                     20                     21
                     A                      A                      A
 Frequencies --   588.7134               641.7175               650.6362
 Red. masses --     4.0022                 6.3470                 6.6403
 Frc consts  --     0.8172                 1.5400                 1.6562
 IR Inten    --     2.7937                 0.3546                12.4243

                    22                     23                     24
                     A                      A                      A
 Frequencies --   669.8021               733.2751               761.4848
 Red. masses --     6.9543                 1.6166                 3.2320
 Frc consts  --     1.8382                 0.5122                 1.1042
 IR Inten    --    18.4273                41.3572                22.7809

                    25                     26                     27
                     A                      A                      A
 Frequencies --   774.1477               799.9618               810.6786
 Red. masses --     4.2638                 4.9020                 2.3432
 Frc consts  --     1.5055                 1.8482                 0.9073
 IR Inten    --    10.8685                13.9691                12.0717

                    28                     29                     30
                     A                      A                      A
 Frequencies --   851.9009               868.1588               885.5809
 Red. masses --     5.6431                 1.9237                 1.2472
 Frc consts  --     2.4129                 0.8543                 0.5763
 IR Inten    --     5.3157                20.2618                 0.2535

                    31                     32                     33
                     A                      A                      A
 Frequencies --   928.1467               965.8136               982.7624
 Red. masses --     7.5121                 1.4226                 1.5138
 Frc consts  --     3.8128                 0.7818                 0.8614
 IR Inten    --    21.5384                 4.1224                 5.4472

                    34                     35                     36
                     A                      A                      A
 Frequencies --  1010.3350              1024.4316              1034.6707
 Red. masses --     1.3658                 1.3776                 6.1416
 Frc consts  --     0.8214                 0.8518                 3.8738
 IR Inten    --     0.2584                 0.3006                 0.4780

                    37                     38                     39
                     A                      A                      A
 Frequencies --  1041.6236              1057.8375              1069.8994
 Red. masses --     1.3363                 3.4335                 1.7014
 Frc consts  --     0.8542                 2.2637                 1.1475
 IR Inten    --     0.1123                 4.3912                 6.5364

                    40                     41                     42
                     A                      A                      A
 Frequencies --  1083.8259              1116.9881              1143.1022
 Red. masses --     1.6238                 1.5426                 2.0512
 Frc consts  --     1.1238                 1.1340                 1.5792
 IR Inten    --     0.2894                 4.9643               119.4998

                    43                     44                     45
                     A                      A                      A
 Frequencies --  1183.9713              1187.5805              1215.5593
 Red. masses --     1.3299                 1.1681                 1.1248
 Frc consts  --     1.0984                 0.9706                 0.9792
 IR Inten    --    11.5951                 0.6650                 0.5622

                    46                     47                     48
                     A                      A                      A
 Frequencies --  1292.7296              1309.6294              1320.6130
 Red. masses --     2.3007                 2.8743                 3.0451
 Frc consts  --     2.2653                 2.9045                 3.1289
 IR Inten    --    13.9487                 0.7480                 2.4416

                    49                     50                     51
                     A                      A                      A
 Frequencies --  1347.3430              1360.9071              1373.5099
 Red. masses --     2.5735                 3.0197                 1.7836
 Frc consts  --     2.7525                 3.2951                 1.9825
 IR Inten    --   138.6929                21.0588                 4.3380

                    52                     53                     54
                     A                      A                      A
 Frequencies --  1422.5335              1478.7765              1505.4476
 Red. masses --    11.6973                 3.4328                 2.6660
 Frc consts  --    13.9463                 4.4229                 3.5599
 IR Inten    --   559.7604                 5.9514                 4.4948

                    55                     56                     57
                     A                      A                      A
 Frequencies --  1546.3688              1562.3481              1620.5301
 Red. masses --     2.5226                 2.8719                10.3270
 Frc consts  --     3.5541                 4.1303                15.9785
 IR Inten    --    45.6419                29.1798               197.2483

                    58                     59                     60
                     A                      A                      A
 Frequencies --  1648.5753              1657.1231              1670.8507
 Red. masses --     2.4802                 2.6115                 2.9702
 Frc consts  --     3.9715                 4.2251                 4.8855
 IR Inten    --     7.4097                15.6685               232.3278

                    61                     62                     63
                     A                      A                      A
 Frequencies --  1683.2346              1691.8163              3190.1658
 Red. masses --     5.8789                 6.6666                 1.0861
 Frc consts  --     9.8137                11.2425                 6.5124
 IR Inten    --     1.5873               115.7366                 1.9272

                    64                     65                     66
                     A                      A                      A
 Frequencies --  3194.8339              3195.2016              3203.6207
 Red. masses --     1.0905                 1.0883                 1.0918
 Frc consts  --     6.5582                 6.5463                 6.6018
 IR Inten    --     8.6787                 0.3479                 5.6796

                    67                     68                     69
                     A                      A                      A
 Frequencies --  3210.2434              3219.3087              3240.4550
 Red. masses --     1.0950                 1.0986                 1.0914
 Frc consts  --     6.6485                 6.7083                 6.7522
 IR Inten    --    12.4339                 9.2751                 3.7723

                    70                     71                     72
                     A                      A                      A
 Frequencies --  3248.0153              3604.7588              3712.3921
 Red. masses --     1.0934                 1.0463                 1.1022
 Frc consts  --     6.7960                 8.0105                 8.9498
 IR Inten    --     3.3523                68.8963                53.5296

 - Thermochemistry -
 -------------------
 Temperature   298.150 Kelvin.  Pressure   1.00000 Atm.
 Atom     1 has atomic number  6 and mass  12.00000

 Molecular mass:   214.07423 amu.
 Principal axes and moments of inertia in atomic units:
                           1         2         3
     Eigenvalues --  1723.690655642.770416967.93522
           X            0.99988   0.01555  -0.00229
           Y           -0.01553   0.99985   0.00819
           Z            0.00241  -0.00815   0.99996
 This molecule is an asymmetric top.
 Rotational symmetry number  1.
 Warning -- assumption of classical behavior for rotation
           may cause significant error
 Rotational temperatures (Kelvin)      0.05025     0.01535     0.01243
 Rotational constants (GHZ):           1.04702     0.31983     0.25901
 Zero-point vibrational energy     532929.6 (Joules/Mol)
                                  127.37323 (Kcal/Mol)
 Warning -- explicit consideration of  19 degrees of freedom as
           vibrations may cause significant error
 Vibrational temperatures:     63.87    76.49   114.47   149.37   169.16
          (Kelvin)            299.64   368.57   399.29   438.88   513.39
                              538.45   582.69   603.55   638.40   648.51
                              726.39   758.74   830.48   847.03   923.29
                              936.12   963.69  1055.02  1095.61  1113.82
                             1150.97  1166.38  1225.69  1249.09  1274.15
                             1335.39  1389.59  1413.97  1453.64  1473.93
                             1488.66  1498.66  1521.99  1539.34  1559.38
                             1607.09  1644.67  1703.47  1708.66  1748.92
                             1859.95  1884.26  1900.07  1938.52  1958.04
                             1976.17  2046.71  2127.63  2166.00  2224.88
                             2247.87  2331.58  2371.93  2384.23  2403.98
                             2421.80  2434.14  4589.93  4596.65  4597.18
                             4609.29  4618.82  4631.86  4662.29  4673.16
                             5186.44  5341.30

 Zero-point correction=                           0.202982 (Hartree/Particle)
 Thermal correction to Energy=                    0.215714
 Thermal correction to Enthalpy=                  0.216659
 Thermal correction to Gibbs Free Energy=         0.162806
 Sum of electronic and zero-point Energies=           -722.888604
 Sum of electronic and thermal Energies=              -722.875872
 Sum of electronic and thermal Enthalpies=            -722.874928
 Sum of electronic and thermal Free Energies=         -722.928780

                     E (Thermal)             CV                S
                      KCal/Mol        Cal/Mol-Kelvin    Cal/Mol-Kelvin
 Total                  135.363             49.995            113.342
 Electronic               0.000              0.000              0.000
 Translational            0.889              2.981             41.987
 Rotational               0.889              2.981             32.583
 Vibrational            133.585             44.034             38.772
 Vibration     1          0.595              1.980              5.053
 Vibration     2          0.596              1.976              4.696
 Vibration     3          0.600              1.963              3.902
 Vibration     4          0.605              1.946              3.381
 Vibration     5          0.608              1.935              3.140
 Vibration     6          0.642              1.828              2.059
 Vibration     7          0.666              1.752              1.688
 Vibration     8          0.679              1.715              1.549
 Vibration     9          0.696              1.664              1.389
 Vibration    10          0.732              1.561              1.136
 Vibration    11          0.745              1.525              1.062
 Vibration    12          0.770              1.459              0.944
 Vibration    13          0.782              1.428              0.894
 Vibration    14          0.803              1.375              0.815
 Vibration    15          0.810              1.359              0.794
 Vibration    16          0.860              1.239              0.646
 Vibration    17          0.882              1.189              0.593
 Vibration    18          0.934              1.081              0.491
 Vibration    19          0.946              1.056              0.469

 Optimization completed.
    -- Stationary point found.
 Normal termination of Gaussian 09 at Thu Jan 12 06:26:04 2023.
