 Gaussian 09, Revision A.02,
 Gaussian 09:  EM64L-G09RevA.02 11-Jun-2009

 ----------------------------------------------------
 # td=(nstates=15) cam-b3lyp/gen scf=qc int=ultrafine
 ----------------------------------------------------

 -----------------------------------------
 NA+C6H5 CAM-B3LYP def2-TZVPD Single point
 -----------------------------------------
 Symbolic Z-matrix:
 Charge =  0 Multiplicity = 1

                         Standard orientation:
 ---------------------------------------------------------------------
 Center     Atomic      Atomic             Coordinates (Angstroms)
 Number     Number       Type             X           Y           Z
 ---------------------------------------------------------------------
      1          6           0        0.861423   -0.540897    0.073324
      2          6           0        2.179017   -0.124893    0.040485
      3          6           0        2.501861    1.213155   -0.098693
      4          6           0        1.487060    2.131466   -0.212250
      5          6           0        0.144261    1.737542   -0.185714
      6          6           0       -0.171509    0.372212   -0.030518
      7          1           0        0.646863   -1.592374    0.193165
      8          1           0        3.538111    1.513972   -0.119430
      9          1           0        1.723868    3.181384   -0.329120
     10          7           0        3.242987   -1.111103    0.156948
     11          8           0        4.391590   -0.712492    0.137035
     12          8           0        2.928078   -2.280357    0.266291
     13          7           0       -0.838426    2.686336   -0.295197
     14          1           0       -0.580334    3.587981   -0.655152
     15          1           0       -1.772947    2.384211   -0.509780
     16          6           0       -1.577722   -0.104551   -0.001116
     17          6           0       -2.003826   -1.085263   -0.892244
     18          6           0       -2.488829    0.387699    0.930732
     19          6           0       -3.303097   -1.561296   -0.854375
     20          1           0       -1.308132   -1.474147   -1.624603
     21          6           0       -3.788192   -0.088485    0.968961
     22          1           0       -2.169803    1.136242    1.644483
     23          6           0       -4.199969   -1.063307    0.075470
     24          1           0       -3.615566   -2.323415   -1.556003
     25          1           0       -4.478961    0.297642    1.706996
     26          1           0       -5.215251   -1.435642    0.106215
 ---------------------------------------------------------------------

 SCF Done:  E(RCAM-B3LYP) =  -723.091586591     a.u. after    9 cycles

 Excitation energies and oscillator strengths:

 Excited State   1:      Singlet-A      4.0936 eV  302.88 nm  f=0.0001  <S**2>=0.000
      52 -> 57         0.66837
      52 -> 66         0.14697
 This state for optimization and/or second-order correction.
 Copying the excited state density for this state as the 1-particle RhoCI density.

 Excited State   2:      Singlet-A      4.3342 eV  286.06 nm  f=0.3226  <S**2>=0.000
      56 -> 57         0.68234

 Excited State   3:      Singlet-A      4.6328 eV  267.62 nm  f=0.0157  <S**2>=0.000
      50 -> 57         0.47777
      55 -> 57        -0.27482
      56 -> 58        -0.37293
      56 -> 61        -0.13025

 Excited State   4:      Singlet-A      4.6516 eV  266.54 nm  f=0.0201  <S**2>=0.000
      50 -> 57         0.46013
      50 -> 66         0.10002
      53 -> 57         0.18553
      55 -> 57         0.19236
      56 -> 58         0.39665
      56 -> 61         0.13826

 Excited State   5:      Singlet-A      5.1981 eV  238.52 nm  f=0.2704  <S**2>=0.000
      53 -> 57         0.20135
      55 -> 57         0.50640
      56 -> 58        -0.40887

 Excited State   6:      Singlet-A      5.3085 eV  233.56 nm  f=0.0007  <S**2>=0.000
      53 -> 59        -0.15250
      54 -> 58        -0.36241
      54 -> 61         0.19686
      55 -> 59         0.32303
      56 -> 59         0.40837

 Excited State   7:      Singlet-A      5.6170 eV  220.73 nm  f=0.0067  <S**2>=0.000
      56 -> 60         0.62560
      56 -> 62         0.22069

 Excited State   8:      Singlet-A      5.6783 eV  218.35 nm  f=0.0338  <S**2>=0.000
      54 -> 59        -0.13422
      55 -> 57        -0.21340
      55 -> 58        -0.37014
      56 -> 59         0.14847
      56 -> 61         0.47019

 Excited State   9:      Singlet-A      6.0021 eV  206.57 nm  f=0.0336  <S**2>=0.000
      53 -> 59         0.15226
      54 -> 58         0.29901
      54 -> 61        -0.13241
      55 -> 59        -0.15686
      56 -> 59         0.51967
      56 -> 61        -0.17715

 Excited State  10:      Singlet-A      6.0869 eV  203.69 nm  f=0.0978  <S**2>=0.000
      53 -> 58        -0.13619
      54 -> 57         0.12774
      54 -> 59         0.18606
      55 -> 58         0.48387
      56 -> 61         0.36338

 Excited State  11:      Singlet-A      6.1528 eV  201.51 nm  f=0.0280  <S**2>=0.000
      53 -> 57         0.29510
      54 -> 57         0.57067
      54 -> 59         0.10844
      55 -> 57        -0.13181
      55 -> 58        -0.11420
      55 -> 61        -0.10358

 Excited State  12:      Singlet-A      6.2283 eV  199.07 nm  f=0.0195  <S**2>=0.000
      51 -> 57        -0.11013
      53 -> 57         0.50914
      54 -> 57        -0.33040
      55 -> 57        -0.20526

 Excited State  13:      Singlet-A      6.3588 eV  194.98 nm  f=0.1116  <S**2>=0.000
      53 -> 58        -0.22037
      54 -> 57        -0.14880
      54 -> 59         0.34967
      55 -> 58        -0.14457
      55 -> 61        -0.28717
      56 -> 63         0.10029
      56 -> 64        -0.11208
      56 -> 65         0.14526
      56 -> 66        -0.31426

 Excited State  14:      Singlet-A      6.3796 eV  194.35 nm  f=0.0147  <S**2>=0.000
      51 -> 57        -0.10383
      55 -> 60        -0.26340
      56 -> 60        -0.17587
      56 -> 62         0.50324
      56 -> 64         0.12878
      56 -> 65         0.22632

 Excited State  15:      Singlet-A      6.4490 eV  192.25 nm  f=0.1740  <S**2>=0.000
      51 -> 57         0.64788

 The electronic state is 1-A.
 Alpha  occ. eigenvalues --  -19.22357 -19.22356 -14.62556 -14.41988 -10.32153
 Alpha  occ. eigenvalues --  -10.29775 -10.27550 -10.27522 -10.27415 -10.27349
 Alpha  occ. eigenvalues --  -10.26508 -10.26323 -10.26262 -10.26245 -10.26186
 Alpha  occ. eigenvalues --  -10.26117  -1.31597  -1.13567  -1.03913  -0.97175
 Alpha  occ. eigenvalues --   -0.96031  -0.89012  -0.87060  -0.84635  -0.82791
 Alpha  occ. eigenvalues --   -0.77095  -0.73134  -0.70519  -0.69128  -0.66260
 Alpha  occ. eigenvalues --   -0.63821  -0.62099  -0.61278  -0.60874  -0.60049
 Alpha  occ. eigenvalues --   -0.57968  -0.54829  -0.54340  -0.52824  -0.52320
 Alpha  occ. eigenvalues --   -0.50921  -0.50634  -0.49519  -0.48136  -0.45758
 Alpha  occ. eigenvalues --   -0.44997  -0.42421  -0.41965  -0.40961  -0.37752
 Alpha  occ. eigenvalues --   -0.37465  -0.35981  -0.34984  -0.32905  -0.31774
 Alpha  occ. eigenvalues --   -0.28461
 Alpha virt. eigenvalues --   -0.03799  -0.00335   0.01461   0.01829   0.02811
 Alpha virt. eigenvalues --    0.03176   0.04228   0.04992   0.05141   0.05978
 Alpha virt. eigenvalues --    0.06878   0.07196   0.07530   0.07661   0.07990

 Mulliken atomic charges:
              1
     1  C   -0.507291
     2  C   -0.220299
     3  C   -0.359154
     4  C   -0.530217
     5  C    0.346831
     6  C    0.255724
     7  H    0.589244
     8  H    0.446947
     9  H    0.282234
    10  N    0.908066
    11  O   -0.595835
    12  O   -0.590958
    13  N   -0.402748
    14  H    0.178737
    15  H    0.235288
    16  C    0.390419
    17  C   -0.497653
    18  C   -0.431758
    19  C   -0.392900
    20  H    0.395802
    21  C   -0.404139
    22  H    0.378316
    23  C   -0.416527
    24  H    0.313588
    25  H    0.315048
    26  H    0.313234
 Sum of Mulliken atomic charges =   0.00000

 Dipole moment (field-independent basis, Debye):
    X=             -5.4894    Y=              4.2890    Z=             -1.1732  Tot=              7.0644
 Quadrupole moment (field-independent basis, Debye-Ang):
   XX=           -103.3697   YY=            -86.8859   ZZ=            -92.0290
   XY=             11.0196   XZ=             -1.6157   YZ=              0.3693

 Normal termination of Gaussian 09 at Sat Mar 18 15:13:23 2023.
