 Gaussian 09, Revision A.02,
 Gaussian 09:  EM64L-G09RevA.02 11-Jun-2009

 ----------------------------------------------------
 # td=(nstates=15) cam-b3lyp/gen scf=qc int=ultrafine
 ----------------------------------------------------

 -----------------------------------------
 NA+ccl3 CAM-B3LYP def2-TZVPD Single point
 -----------------------------------------
 Symbolic Z-matrix:
 Charge =  0 Multiplicity = 1

                         Standard orientation:
 ---------------------------------------------------------------------
 Center     Atomic      Atomic             Coordinates (Angstroms)
 Number     Number       Type             X           Y           Z
 ---------------------------------------------------------------------
      1          6           0        0.972843   -0.474497   -0.003778
      2          6           0        2.204534    0.140854   -0.001124
      3          6           0        2.315716    1.520845    0.002304
      4          6           0        1.171608    2.270494    0.001504
      5          6           0       -0.104142    1.681812   -0.001906
      6          6           0       -0.195156    0.267152   -0.003296
      7          1           0        0.944128   -1.550697   -0.005532
      8          1           0        3.291917    1.981236    0.004228
      9          1           0        1.237474    3.350819    0.004728
     10          7           0        3.407682   -0.679266   -0.002353
     11          8           0        4.479223   -0.105796    0.000497
     12          8           0        3.275789   -1.886842   -0.006238
     13          7           0       -1.180531    2.504814    0.018709
     14          1           0       -1.035640    3.492409   -0.083047
     15          1           0       -2.113178    2.165918   -0.120575
     16          6           0       -1.538364   -0.426869    0.003700
     17         17           0       -2.502825    0.042181   -1.443181
     18         17           0       -2.477442    0.024711    1.464915
     19         17           0       -1.426621   -2.193726   -0.013074
 ---------------------------------------------------------------------

 SCF Done:  E(RCAM-B3LYP) =  -1910.25397301     a.u. after    9 cycles

 Excitation energies and oscillator strengths:

 Excited State   1:      Singlet-A      4.1100 eV  301.66 nm  f=0.0000  <S**2>=0.000
      62 -> 65         0.66292
      62 -> 69         0.11677
      62 -> 76         0.12088
 This state for optimization and/or second-order correction.
 Copying the excited state density for this state as the 1-particle RhoCI density.

 Excited State   2:      Singlet-A      4.4411 eV  279.18 nm  f=0.3312  <S**2>=0.000
      64 -> 65         0.68846

 Excited State   3:      Singlet-A      4.6532 eV  266.45 nm  f=0.0005  <S**2>=0.000
      59 -> 65         0.65407
      59 -> 69         0.11119
      59 -> 76         0.11419

 Excited State   4:      Singlet-A      4.6577 eV  266.19 nm  f=0.0471  <S**2>=0.000
      63 -> 65         0.26143
      64 -> 66         0.62716

 Excited State   5:      Singlet-A      5.4111 eV  229.13 nm  f=0.0033  <S**2>=0.000
      63 -> 67        -0.13931
      64 -> 67         0.64614
      64 -> 68        -0.14467

 Excited State   6:      Singlet-A      5.5388 eV  223.85 nm  f=0.1124  <S**2>=0.000
      63 -> 65         0.59672
      64 -> 66        -0.28265
      64 -> 69         0.12449
      64 -> 70         0.10708

 Excited State   7:      Singlet-A      5.8710 eV  211.18 nm  f=0.0070  <S**2>=0.000
      63 -> 65         0.12823
      63 -> 66        -0.12175
      64 -> 67         0.10266
      64 -> 68         0.58361
      64 -> 69        -0.19596
      64 -> 70        -0.12697
      64 -> 71         0.14753

 Excited State   8:      Singlet-A      5.9382 eV  208.79 nm  f=0.0230  <S**2>=0.000
      63 -> 65        -0.18768
      63 -> 66         0.23014
      64 -> 68         0.27119
      64 -> 69         0.40711
      64 -> 70         0.31245
      64 -> 71         0.10666
      64 -> 73         0.13544

 Excited State   9:      Singlet-A      6.2435 eV  198.58 nm  f=0.0006  <S**2>=0.000
      63 -> 70        -0.10687
      64 -> 67        -0.10259
      64 -> 69        -0.37555
      64 -> 70         0.48579
      64 -> 72         0.11051
      64 -> 75        -0.12112

 Excited State  10:      Singlet-A      6.2852 eV  197.26 nm  f=0.0005  <S**2>=0.000
      57 -> 67         0.11237
      58 -> 66         0.13810
      60 -> 67         0.48277
      61 -> 67        -0.23416
      63 -> 67        -0.28407
      64 -> 70        -0.10722

 Excited State  11:      Singlet-A      6.4033 eV  193.62 nm  f=0.1405  <S**2>=0.000
      58 -> 67        -0.17854
      60 -> 65        -0.13782
      60 -> 67         0.10010
      61 -> 65        -0.25790
      63 -> 66         0.49408
      64 -> 69        -0.14972
      64 -> 70        -0.12487

 Excited State  12:      Singlet-A      6.4313 eV  192.78 nm  f=0.0077  <S**2>=0.000
      56 -> 66        -0.12393
      57 -> 67         0.37218
      60 -> 67        -0.28926
      61 -> 65        -0.11559
      63 -> 67        -0.35062
      64 -> 67        -0.15439

 Excited State  13:      Singlet-A      6.4653 eV  191.77 nm  f=0.2634  <S**2>=0.000
      58 -> 67        -0.13066
      60 -> 65         0.19339
      61 -> 65         0.55897
      63 -> 66         0.21545
      64 -> 69        -0.12331
      64 -> 70        -0.12235

 Excited State  14:      Singlet-A      6.6244 eV  187.16 nm  f=0.1538  <S**2>=0.000
      58 -> 67         0.49816
      59 -> 67        -0.10196
      60 -> 66         0.16690
      63 -> 66         0.29123

 Excited State  15:      Singlet-A      6.7180 eV  184.55 nm  f=0.0019  <S**2>=0.000
      64 -> 68        -0.11949
      64 -> 71         0.53979
      64 -> 74         0.36686
      64 -> 82         0.10676

 The electronic state is 1-A.
 Alpha  occ. eigenvalues -- -101.62927-101.62922-101.62707 -19.23267 -19.23265
 Alpha  occ. eigenvalues --  -14.63507 -14.43534 -10.45721 -10.34419 -10.30947
 Alpha  occ. eigenvalues --  -10.30441 -10.29087 -10.28851 -10.27856  -9.56287
 Alpha  occ. eigenvalues --   -9.56286  -9.56063  -7.32627  -7.32603  -7.32390
 Alpha  occ. eigenvalues --   -7.31643  -7.31622  -7.31618  -7.31614  -7.31414
 Alpha  occ. eigenvalues --   -7.31392  -1.32564  -1.14561  -1.06837  -1.03995
 Alpha  occ. eigenvalues --   -0.98220  -0.93625  -0.93447  -0.89401  -0.87911
 Alpha  occ. eigenvalues --   -0.78710  -0.76644  -0.71916  -0.67542  -0.64870
 Alpha  occ. eigenvalues --   -0.63934  -0.62556  -0.62241  -0.58995  -0.57253
 Alpha  occ. eigenvalues --   -0.56551  -0.56128  -0.53865  -0.53477  -0.50811
 Alpha  occ. eigenvalues --   -0.50323  -0.45928  -0.44195  -0.43396  -0.42225
 Alpha  occ. eigenvalues --   -0.41361  -0.40021  -0.39509  -0.38587  -0.38462
 Alpha  occ. eigenvalues --   -0.38308  -0.36890  -0.35057  -0.30072
 Alpha virt. eigenvalues --   -0.04733  -0.01812  -0.00854   0.01239   0.02086
 Alpha virt. eigenvalues --    0.02230   0.03035   0.03679   0.04435   0.05185
 Alpha virt. eigenvalues --    0.05556   0.06173   0.06431   0.07602   0.08253

 Mulliken atomic charges:
              1
     1  C   -0.433761
     2  C   -0.540777
     3  C   -0.344426
     4  C   -0.578394
     5  C    0.952120
     6  C   -0.190842
     7  H    0.657934
     8  H    0.458006
     9  H    0.260999
    10  N    0.896215
    11  O   -0.588491
    12  O   -0.588350
    13  N   -0.340826
    14  H    0.184987
    15  H    0.141080
    16  C    0.608619
    17  Cl  -0.185600
    18  Cl  -0.166124
    19  Cl  -0.202366
 Sum of Mulliken atomic charges =   0.00000

 Dipole moment (field-independent basis, Debye):
    X=             -3.9013    Y=              4.8176    Z=             -0.2855  Tot=              6.2057
 Quadrupole moment (field-independent basis, Debye-Ang):
   XX=           -120.1043   YY=            -89.9619   ZZ=           -102.2204
   XY=              4.3330   XZ=              0.6000   YZ=             -0.9282

 Normal termination of Gaussian 09 at Mon Mar 13 20:26:34 2023.
