 Gaussian 09, Revision A.02,
 Gaussian 09:  EM64L-G09RevA.02 11-Jun-2009

 ----------------------------------------------------
 # td=(nstates=15) cam-b3lyp/gen scf=qc int=ultrafine
 ----------------------------------------------------

 ----------------------------------------
 NA+CH3 CAM-B3LYP def2-TZVPD Single point
 ----------------------------------------
 Symbolic Z-matrix:
 Charge =  0 Multiplicity = 1

                         Standard orientation:
 ---------------------------------------------------------------------
 Center     Atomic      Atomic             Coordinates (Angstroms)
 Number     Number       Type             X           Y           Z
 ---------------------------------------------------------------------
      1          6           0        0.073229    0.955993    0.000797
      2          6           0        0.954920   -0.111263   -0.000454
      3          6           0        0.498464   -1.416097   -0.004223
      4          6           0       -0.857535   -1.644102   -0.004683
      5          6           0       -1.764501   -0.581157   -0.002462
      6          6           0       -1.289084    0.743158   -0.001411
      7          1           0        0.470681    1.960381    0.002215
      8          1           0        1.206496   -2.230513   -0.005215
      9          1           0       -1.232104   -2.659915   -0.009674
     10          7           0        2.387264    0.146719    0.002586
     11          8           0        3.137927   -0.809822    0.000989
     12          8           0        2.758628    1.304813    0.006851
     13          7           0       -3.113858   -0.829737   -0.043220
     14          1           0       -3.428452   -1.760639    0.165976
     15          1           0       -3.749147   -0.097455    0.217498
     16          6           0       -2.253555    1.890667   -0.007996
     17          1           0       -1.724777    2.840874   -0.032152
     18          1           0       -2.913443    1.852706   -0.878267
     19          1           0       -2.887160    1.892570    0.883929
 ---------------------------------------------------------------------

 SCF Done:  E(RCAM-B3LYP) =  -531.395907725     a.u. after    8 cycles

 Excitation energies and oscillator strengths:

 Excited State   1:      Singlet-A      4.0912 eV  303.05 nm  f=0.0000  <S**2>=0.000
      38 -> 41         0.67484
      38 -> 46        -0.18750
 This state for optimization and/or second-order correction.
 Copying the excited state density for this state as the 1-particle RhoCI density.

 Excited State   2:      Singlet-A      4.3912 eV  282.35 nm  f=0.3544  <S**2>=0.000
      40 -> 41         0.68850

 Excited State   3:      Singlet-A      4.6435 eV  267.01 nm  f=0.0005  <S**2>=0.000
      36 -> 41         0.67561
      36 -> 46        -0.18013

 Excited State   4:      Singlet-A      4.8286 eV  256.77 nm  f=0.0040  <S**2>=0.000
      39 -> 41         0.49812
      39 -> 46         0.11135
      40 -> 42         0.20236
      40 -> 43        -0.43547

 Excited State   5:      Singlet-A      5.5075 eV  225.12 nm  f=0.0309  <S**2>=0.000
      39 -> 41        -0.27090
      40 -> 42         0.62178
      40 -> 44         0.11354

 Excited State   6:      Singlet-A      5.5579 eV  223.08 nm  f=0.0704  <S**2>=0.000
      39 -> 41         0.41345
      40 -> 42         0.16521
      40 -> 43         0.52223

 Excited State   7:      Singlet-A      6.2933 eV  197.01 nm  f=0.0088  <S**2>=0.000
      39 -> 42         0.19073
      39 -> 43        -0.10417
      40 -> 44         0.56099
      40 -> 46        -0.27509
      40 -> 47         0.11814

 Excited State   8:      Singlet-A      6.3561 eV  195.06 nm  f=0.0224  <S**2>=0.000
      35 -> 41         0.11233
      39 -> 43         0.31595
      40 -> 44         0.30586
      40 -> 45         0.19122
      40 -> 46         0.46545

 Excited State   9:      Singlet-A      6.4475 eV  192.30 nm  f=0.1675  <S**2>=0.000
      37 -> 41         0.67675

 Excited State  10:      Singlet-A      6.4709 eV  191.60 nm  f=0.0111  <S**2>=0.000
      39 -> 43        -0.12958
      40 -> 45         0.61246
      40 -> 46        -0.13058
      40 -> 47        -0.19170
      40 -> 49         0.16782

 Excited State  11:      Singlet-A      6.8978 eV  179.74 nm  f=0.4468  <S**2>=0.000
      35 -> 41        -0.13932
      39 -> 42        -0.39229
      39 -> 43         0.42235
      40 -> 46        -0.34352

 Excited State  12:      Singlet-A      6.9610 eV  178.11 nm  f=0.0455  <S**2>=0.000
      39 -> 42         0.48108
      39 -> 43         0.39672
      39 -> 45         0.17853
      39 -> 47        -0.12125
      40 -> 44        -0.12779
      40 -> 47        -0.11767

 Excited State  13:      Singlet-A      7.1139 eV  174.28 nm  f=0.0004  <S**2>=0.000
      39 -> 44         0.16627
      40 -> 44        -0.14010
      40 -> 45         0.19950
      40 -> 47         0.57728
      40 -> 49        -0.12865

 Excited State  14:      Singlet-A      7.3627 eV  168.39 nm  f=0.0011  <S**2>=0.000
      34 -> 41         0.61828
      34 -> 46         0.11415
      40 -> 48         0.22248

 Excited State  15:      Singlet-A      7.3803 eV  167.99 nm  f=0.0007  <S**2>=0.000
      34 -> 41        -0.24607
      39 -> 45        -0.16894
      40 -> 44        -0.10785
      40 -> 48         0.53984
      40 -> 49         0.14111
      40 -> 50        -0.13011
      40 -> 52        -0.15663

 The electronic state is 1-A.
 Alpha  occ. eigenvalues --  -19.22243 -19.22241 -14.62434 -14.42291 -10.31740
 Alpha  occ. eigenvalues --  -10.29614 -10.27349 -10.27165 -10.27034 -10.26364
 Alpha  occ. eigenvalues --  -10.26151  -1.31473  -1.13437  -1.03892  -0.96647
 Alpha  occ. eigenvalues --   -0.89000  -0.86873  -0.79589  -0.76921  -0.71139
 Alpha  occ. eigenvalues --   -0.66266  -0.63130  -0.62369  -0.61154  -0.60842
 Alpha  occ. eigenvalues --   -0.57879  -0.53803  -0.52480  -0.52200  -0.50560
 Alpha  occ. eigenvalues --   -0.49213  -0.46825  -0.46200  -0.42931  -0.41094
 Alpha  occ. eigenvalues --   -0.37601  -0.37343  -0.35852  -0.32986  -0.28756
 Alpha virt. eigenvalues --   -0.03679   0.01373   0.01627   0.03438   0.04285
 Alpha virt. eigenvalues --    0.05610   0.06581   0.06824   0.07205   0.09310
 Alpha virt. eigenvalues --    0.09859   0.10181   0.10496   0.10727   0.12142

 Mulliken atomic charges:
              1
     1  C   -0.245123
     2  C   -0.321393
     3  C   -0.372055
     4  C   -0.448271
     5  C    0.411530
     6  C    0.472867
     7  H    0.443387
     8  H    0.445630
     9  H    0.258262
    10  N    0.893256
    11  O   -0.591423
    12  O   -0.592688
    13  N   -0.386430
    14  H    0.186499
    15  H    0.201251
    16  C   -1.410068
    17  H    0.334095
    18  H    0.360786
    19  H    0.359888
 Sum of Mulliken atomic charges =   0.00000

 Dipole moment (field-independent basis, Debye):
    X=             -7.1059    Y=             -0.8638    Z=              0.6159  Tot=              7.1847
 Quadrupole moment (field-independent basis, Debye-Ang):
   XX=            -68.8010   YY=            -59.0171   ZZ=            -66.3454
   XY=             -0.1262   XZ=             -2.6285   YZ=             -0.6379

 Normal termination of Gaussian 09 at Sat Mar 11 07:26:34 2023.
