 Gaussian 09, Revision A.02,
 Gaussian 09:  EM64L-G09RevA.02 11-Jun-2009

 ---------------------------------------------------
 # opt=tight freq cam-b3lyp/gen scf=qc int=ultrafine
 ---------------------------------------------------

 ----------------------------
 NA+SO3H CAM-B3LYP def2-TZVPD
 ----------------------------
 Symbolic Z-matrix:
 Charge =  0 Multiplicity = 1

 SCF Done:  E(RCAM-B3LYP) =  -1040.74442183     a.u. after    9 cycles
 SCF Done:  E(RCAM-B3LYP) =  -1040.74442183     a.u. after    2 cycles
 SCF Done:  E(RCAM-B3LYP) =  -1040.74442183     a.u. after    2 cycles
 SCF Done:  E(RCAM-B3LYP) =  -1040.74442183     a.u. after    2 cycles
 Optimization completed.
    -- Stationary point found.
 Normal termination of Gaussian 09 at Sat Feb 11 19:14:15 2023.

 ----------------------------------------------------------------------
 #N Geom=AllCheck Guess=TCheck SCRF=Check GenChk RCAM-B3LYP/ChkBas Freq
 ----------------------------------------------------------------------

 NA+SO3H CAM-B3LYP def2-TZVPD
 ----------------------------
 Redundant internal coordinates taken from checkpoint file:
 /home/matheusmaximo/Gaussian/substituent/so3h/so3h_s0.chk
 Charge =  0 Multiplicity = 1

                         Standard orientation:
 ---------------------------------------------------------------------
 Center     Atomic      Atomic             Coordinates (Angstroms)
 Number     Number       Type             X           Y           Z
 ---------------------------------------------------------------------
      1          6           0        0.498093   -0.592640    0.041508
      2          6           0        1.669236    0.124762   -0.001326
      3          6           0        1.655664    1.514351   -0.009481
      4          6           0        0.461178    2.182078    0.013895
      5          6           0       -0.764680    1.493043    0.043858
      6          6           0       -0.711475    0.081466    0.070623
      7          1           0        0.518125   -1.672425    0.047950
      8          1           0        2.592882    2.049645   -0.040529
      9          1           0        0.448374    3.264074   -0.001592
     10          7           0        2.944099   -0.581980   -0.032708
     11          8           0        3.956134    0.089068   -0.071659
     12          8           0        2.920042   -1.794617   -0.016491
     13          7           0       -1.928114    2.184171    0.075577
     14          1           0       -1.893770    3.177938   -0.065222
     15          1           0       -2.783464    1.708014   -0.169002
     16         16           0       -2.167259   -0.892887    0.184968
     17          8           0       -3.240021   -0.220685   -0.498240
     18          8           0       -1.849936   -2.255913   -0.100386
     19          1           0       -2.455735   -0.817580    1.508567
 ---------------------------------------------------------------------

 SCF Done:  E(RCAM-B3LYP) =  -1040.74442183     a.u. after    1 cycles

 The electronic state is 1-A.
 Alpha  occ. eigenvalues --  -89.14328 -19.24081 -19.24079 -19.22160 -19.21861
 Alpha  occ. eigenvalues --  -14.64341 -14.44039 -10.35782 -10.32142 -10.31020
 Alpha  occ. eigenvalues --  -10.30697 -10.30261 -10.29042  -8.19359  -6.15676
 Alpha  occ. eigenvalues --   -6.15675  -6.15632  -1.33430  -1.22785  -1.15461
 Alpha  occ. eigenvalues --   -1.12220  -1.06386  -0.99409  -0.91063  -0.89322
 Alpha  occ. eigenvalues --   -0.80454  -0.79068  -0.73765  -0.70025  -0.66379
 Alpha  occ. eigenvalues --   -0.64887  -0.63294  -0.63093  -0.61637  -0.59629
 Alpha  occ. eigenvalues --   -0.58329  -0.56307  -0.55000  -0.53978  -0.52391
 Alpha  occ. eigenvalues --   -0.51335  -0.47594  -0.44049  -0.43855  -0.42882
 Alpha  occ. eigenvalues --   -0.41394  -0.39963  -0.39163  -0.38995  -0.37711
 Alpha  occ. eigenvalues --   -0.37024  -0.31445
 Alpha virt. eigenvalues --   -0.05556  -0.03329   0.00799   0.01851   0.02145
 Alpha virt. eigenvalues --    0.03197   0.04306   0.04556   0.05293   0.06504
 Alpha virt. eigenvalues --    0.08116   0.08348   0.08577   0.09460   0.09965

 Mulliken atomic charges:
              1
     1  C   -0.370652
     2  C   -0.245520
     3  C   -0.294246
     4  C   -0.550856
     5  C    0.493022
     6  C   -0.026145
     7  H    0.606388
     8  H    0.454470
     9  H    0.268493
    10  N    0.904025
    11  O   -0.586277
    12  O   -0.576562
    13  N   -0.357354
    14  H    0.183710
    15  H    0.252068
    16  S    0.908849
    17  O   -0.645185
    18  O   -0.562580
    19  H    0.144352
 Sum of Mulliken atomic charges =   0.00000

 Dipole moment (field-independent basis, Debye):
    X=             -2.6699    Y=              5.9831    Z=              1.7299  Tot=              6.7763
 Quadrupole moment (field-independent basis, Debye-Ang):
   XX=           -101.2661   YY=            -77.4531   ZZ=            -80.5570
   XY=             -1.4850   XZ=             -4.8810   YZ=             -3.1966

  Exact polarizability: 169.107  -8.585 137.231  -2.271  -0.685  72.056
 Approx polarizability: 195.236  -9.033 183.880  -1.591  -0.681  99.114

                     1                      2                      3
                     A                      A                      A
 Frequencies --    50.5921                57.9872               114.9778
 Red. masses --    10.1656                12.7059                 6.0586
 Frc consts  --     0.0153                 0.0252                 0.0472
 IR Inten    --     1.0321                 0.4918                 0.8630

                     4                      5                      6
                     A                      A                      A
 Frequencies --   139.5303               152.0101               262.6888
 Red. masses --     6.4237                 8.4949                 8.1105
 Frc consts  --     0.0737                 0.1157                 0.3297
 IR Inten    --     1.2583                 4.6022                 0.3598

                     7                      8                      9
                     A                      A                      A
 Frequencies --   290.9697               310.2256               330.4915
 Red. masses --     7.7128                 7.5975                 7.3454
 Frc consts  --     0.3847                 0.4308                 0.4727
 IR Inten    --     4.5019                 0.9042                 1.8841

                    10                     11                     12
                     A                      A                      A
 Frequencies --   381.1137               428.1077               453.6834
 Red. masses --     7.5865                 2.4470                 1.5025
 Frc consts  --     0.6492                 0.2642                 0.1822
 IR Inten    --     0.0724                33.3528               151.4454

                    13                     14                     15
                     A                      A                      A
 Frequencies --   467.3439               531.7930               537.8578
 Red. masses --     4.0946                 3.2072                 8.0355
 Frc consts  --     0.5269                 0.5344                 1.3696
 IR Inten    --    16.6499                26.5950                43.3470

                    16                     17                     18
                     A                      A                      A
 Frequencies --   568.4683               582.6446               620.2115
 Red. masses --     4.7650                 1.4330                 2.9635
 Frc consts  --     0.9073                 0.2866                 0.6716
 IR Inten    --    23.7574                31.3137               101.8099

                    19                     20                     21
                     A                      A                      A
 Frequencies --   664.7308               742.7307               767.7555
 Red. masses --     6.9220                 5.0603                 4.4302
 Frc consts  --     1.8021                 1.6447                 1.5386
 IR Inten    --     6.0807                 4.8679                 6.3310

                    22                     23                     24
                     A                      A                      A
 Frequencies --   795.6817               853.9824               868.6432
 Red. masses --     5.7940                 6.6842                 1.7595
 Frc consts  --     2.1613                 2.8721                 0.7822
 IR Inten    --    28.4023                 8.3344                23.1846

                    25                     26                     27
                     A                      A                      A
 Frequencies --   934.6996               997.6793              1026.3545
 Red. masses --     8.1158                 1.4492                 1.3507
 Frc consts  --     4.1776                 0.8499                 0.8383
 IR Inten    --    40.7504                 8.7662                 0.2672

                    28                     29                     30
                     A                      A                      A
 Frequencies --  1071.8578              1094.0316              1097.8421
 Red. masses --     1.9080                 1.3349                 1.4160
 Frc consts  --     1.2915                 0.9414                 1.0056
 IR Inten    --     1.9053               104.9612                10.9791

                    31                     32                     33
                     A                      A                      A
 Frequencies --  1135.0902              1163.3510              1186.3933
 Red. masses --     1.1035                 2.5355                 2.2318
 Frc consts  --     0.8377                 2.0218                 1.8508
 IR Inten    --     0.4984               144.2018               130.7377

                    34                     35                     36
                     A                      A                      A
 Frequencies --  1198.3898              1299.2666              1355.0988
 Red. masses --     2.8908                 1.6492                 2.7196
 Frc consts  --     2.4461                 1.6403                 2.9423
 IR Inten    --    41.1505                 7.1539                49.4620

                    37                     38                     39
                     A                      A                      A
 Frequencies --  1380.9460              1398.0196              1429.0390
 Red. masses --     5.5557                 8.8271                13.1577
 Frc consts  --     6.2423                10.1647                15.8314
 IR Inten    --    10.6375               125.6925               590.4638

                    40                     41                     42
                     A                      A                      A
 Frequencies --  1486.8038              1543.8155              1617.6608
 Red. masses --     4.4294                 2.8765                 8.6640
 Frc consts  --     5.7690                 4.0392                13.3580
 IR Inten    --    29.5292                93.7808                62.7873

                    43                     44                     45
                     A                      A                      A
 Frequencies --  1654.6559              1673.0360              1689.1064
 Red. masses --     1.9744                 2.8586                 4.9886
 Frc consts  --     3.1850                 4.7143                 8.3858
 IR Inten    --    16.5858               333.2210               301.2147

                    46                     47                     48
                     A                      A                      A
 Frequencies --  2549.3794              3201.7156              3245.3793
 Red. masses --     1.0402                 1.0908                 1.0936
 Frc consts  --     3.9832                 6.5881                 6.7861
 IR Inten    --    33.8604                 4.0774                 4.8605

                    49                     50                     51
                     A                      A                      A
 Frequencies --  3246.8085              3560.6013              3699.7008
 Red. masses --     1.0916                 1.0513                 1.0985
 Frc consts  --     6.7799                 7.8527                 8.8593
 IR Inten    --    18.5711               168.9217                86.3886

 - Thermochemistry -
 -------------------
 Temperature   298.150 Kelvin.  Pressure   1.00000 Atm.
 Atom     1 has atomic number  6 and mass  12.00000

 Molecular mass:   202.00483 amu.
 Principal axes and moments of inertia in atomic units:
                           1         2         3
     Eigenvalues --  1377.912493751.230655073.30668
           X            0.99999  -0.00438  -0.00307
           Y            0.00436   0.99998  -0.00494
           Z            0.00309   0.00493   0.99998
 This molecule is an asymmetric top.
 Rotational symmetry number  1.
 Warning -- assumption of classical behavior for rotation
           may cause significant error
 Rotational temperatures (Kelvin)      0.06286     0.02309     0.01707
 Rotational constants (GHZ):           1.30976     0.48111     0.35573
 Zero-point vibrational energy     346384.4 (Joules/Mol)
                                   82.78785 (Kcal/Mol)
 Warning -- explicit consideration of  18 degrees of freedom as
           vibrations may cause significant error
 Vibrational temperatures:     72.79    83.43   165.43   200.75   218.71
          (Kelvin)            377.95   418.64   446.34   475.50   548.34
                              615.95   652.75   672.40   765.13   773.86
                              817.90   838.29   892.34   956.40  1068.62
                             1104.63  1144.81  1228.69  1249.78  1344.82
                             1435.44  1476.69  1542.16  1574.07  1579.55
                             1633.14  1673.80  1706.95  1724.21  1869.35
                             1949.68  1986.87  2011.44  2056.07  2139.18
                             2221.20  2327.45  2380.68  2407.12  2430.24
                             3667.98  4606.55  4669.37  4671.43  5122.90
                             5323.04

 Zero-point correction=                           0.131931 (Hartree/Particle)
 Thermal correction to Energy=                    0.142983
 Thermal correction to Enthalpy=                  0.143927
 Thermal correction to Gibbs Free Energy=         0.093875
 Sum of electronic and zero-point Energies=          -1040.612491
 Sum of electronic and thermal Energies=             -1040.601439
 Sum of electronic and thermal Enthalpies=           -1040.600495
 Sum of electronic and thermal Free Energies=        -1040.650547

                     E (Thermal)             CV                S
                      KCal/Mol        Cal/Mol-Kelvin    Cal/Mol-Kelvin
 Total                   89.723             41.443            105.345
 Electronic               0.000              0.000              0.000
 Translational            0.889              2.981             41.814
 Rotational               0.889              2.981             31.639
 Vibrational             87.946             35.482             31.891
 Vibration     1          0.595              1.977              4.794
 Vibration     2          0.596              1.974              4.525
 Vibration     3          0.608              1.937              3.183
 Vibration     4          0.615              1.914              2.810
 Vibration     5          0.619              1.900              2.647
 Vibration     6          0.670              1.741              1.644
 Vibration     7          0.687              1.691              1.468
 Vibration     8          0.699              1.654              1.361
 Vibration     9          0.713              1.615              1.258
 Vibration    10          0.751              1.510              1.035
 Vibration    11          0.790              1.409              0.865
 Vibration    12          0.812              1.353              0.785
 Vibration    13          0.825              1.322              0.745
 Vibration    14          0.887              1.180              0.583
 Vibration    15          0.893              1.166              0.570
 Vibration    16          0.924              1.099              0.507
 Vibration    17          0.939              1.069              0.480
 Vibration    18          0.980              0.989              0.416

 Optimization completed.
    -- Stationary point found.
 Normal termination of Gaussian 09 at Sun Feb 12 07:16:09 2023.
