 Gaussian 09, Revision A.02,
 Gaussian 09:  EM64L-G09RevA.02 11-Jun-2009

 ---------------------------------------------------------------------
 # opt=tight freq cam-b3lyp/gen geom=connectivity scf=qc int=ultrafine
 ---------------------------------------------------------------------

 -----------------------
 NA CAM-B3LYP def2-TZVPD
 -----------------------
 Symbolic Z-matrix:
 Charge =  0 Multiplicity = 1

 SCF Done:  E(RCAM-B3LYP) =  -492.078590047     a.u. after    8 cycles
 SCF Done:  E(RCAM-B3LYP) =  -492.084660507     a.u. after    5 cycles
 SCF Done:  E(RCAM-B3LYP) =  -492.088554746     a.u. after   14 cycles
 SCF Done:  E(RCAM-B3LYP) =  -492.087639547     a.u. after   18 cycles
 SCF Done:  E(RCAM-B3LYP) =  -492.088581958     a.u. after   17 cycles
 SCF Done:  E(RCAM-B3LYP) =  -492.088679826     a.u. after   18 cycles
 SCF Done:  E(RCAM-B3LYP) =  -492.088711417     a.u. after   19 cycles
 SCF Done:  E(RCAM-B3LYP) =  -492.088719350     a.u. after    3 cycles
 SCF Done:  E(RCAM-B3LYP) =  -492.088719879     a.u. after    2 cycles
 SCF Done:  E(RCAM-B3LYP) =  -492.088720341     a.u. after   19 cycles
 SCF Done:  E(RCAM-B3LYP) =  -492.088720521     a.u. after    2 cycles
 SCF Done:  E(RCAM-B3LYP) =  -492.088720565     a.u. after   19 cycles
 SCF Done:  E(RCAM-B3LYP) =  -492.088720568     a.u. after   19 cycles
 SCF Done:  E(RCAM-B3LYP) =  -492.088720568     a.u. after   19 cycles
 SCF Done:  E(RCAM-B3LYP) =  -492.088720566     a.u. after    2 cycles
 Optimization completed.
    -- Stationary point found.
 Normal termination of Gaussian 09 at Sat Oct 22 23:55:35 2022.

 ----------------------------------------------------------------------
 #N Geom=AllCheck Guess=TCheck SCRF=Check GenChk RCAM-B3LYP/ChkBas Freq
 ----------------------------------------------------------------------

 NA CAM-B3LYP def2-TZVPD
 -----------------------
 Redundant internal coordinates taken from checkpoint file:
 /home/matheusmaximo/Gaussian/NA/cam-b3lyp-def/1.chk
 Charge =  0 Multiplicity = 1

                         Standard orientation:
 ---------------------------------------------------------------------
 Center     Atomic      Atomic             Coordinates (Angstroms)
 Number     Number       Type             X           Y           Z
 ---------------------------------------------------------------------
      1          6           0       -0.020681   -1.205100   -0.002714
      2          6           0       -0.702028   -0.000001   -0.001503
      3          6           0       -0.020683    1.205099   -0.002723
      4          6           0        1.354584    1.204351   -0.004752
      5          6           0        2.066479    0.000001   -0.004971
      6          6           0        1.354586   -1.204351   -0.004741
      7          1           0       -0.578957   -2.128948   -0.001320
      8          1           0       -0.578960    2.128947   -0.001335
      9          1           0        1.893496    2.143115   -0.009342
     10          1           0        1.893499   -2.143114   -0.009321
     11          7           0       -2.157190    0.000000    0.002600
     12          8           0       -2.726376    1.074378    0.004346
     13          8           0       -2.726378   -1.074378    0.004320
     14          7           0        3.436369    0.000000   -0.044002
     15          1           0        3.922576    0.848527    0.185117
     16          1           0        3.922574   -0.848527    0.185123
 ---------------------------------------------------------------------

 SCF Done:  E(RCAM-B3LYP) =  -492.088720566     a.u. after    1 cycles

 The electronic state is 1-A.
 Alpha  occ. eigenvalues --  -19.22461 -19.22459 -14.62663 -14.42478 -10.32305
 Alpha  occ. eigenvalues --  -10.29932 -10.27689 -10.27687 -10.26707 -10.26706
 Alpha  occ. eigenvalues --   -1.31707  -1.13678  -1.03982  -0.96880  -0.87831
 Alpha  occ. eigenvalues --   -0.86038  -0.77274  -0.72470  -0.67776  -0.64120
 Alpha  occ. eigenvalues --   -0.62162  -0.61385  -0.61163  -0.58083  -0.53722
 Alpha  occ. eigenvalues --   -0.53014  -0.51791  -0.49607  -0.48696  -0.43517
 Alpha  occ. eigenvalues --   -0.41341  -0.37838  -0.37565  -0.36082  -0.34033
 Alpha  occ. eigenvalues --   -0.29198
 Alpha virt. eigenvalues --   -0.03891   0.00961   0.01580   0.04039   0.04110
 Alpha virt. eigenvalues --    0.05263   0.06543   0.06966   0.07403   0.10164
 Alpha virt. eigenvalues --    0.10370   0.10445   0.11326   0.12962   0.13095

 Mulliken atomic charges:
              1
     1  C   -0.377894
     2  C   -0.292353
     3  C   -0.377888
     4  C   -0.465570
     5  C    0.974673
     6  C   -0.465567
     7  H    0.425899
     8  H    0.425899
     9  H    0.240005
    10  H    0.240004
    11  N    0.905121
    12  O   -0.590150
    13  O   -0.590150
    14  N   -0.448200
    15  H    0.198087
    16  H    0.198087
 Sum of Mulliken atomic charges =   0.00000

 Dipole moment (field-independent basis, Debye):
    X=              7.0028    Y=              0.0000    Z=              0.6315  Tot=              7.0312
 Quadrupole moment (field-independent basis, Debye-Ang):
   XX=            -58.2879   YY=            -53.2405   ZZ=            -60.1343
   XY=              0.0000   XZ=              2.8774   YZ=             -0.0001

  Exact polarizability: 148.866   0.000 100.440  -0.286   0.000  54.371
 Approx polarizability: 166.864   0.000 142.475  -0.661   0.000  71.933

                     1                      2                      3
                     A                      A                      A
 Frequencies --    68.4513               113.6227               228.9791
 Red. masses --     7.7645                 5.6554                 6.4465
 Frc consts  --     0.0214                 0.0430                 0.1991
 IR Inten    --     0.0596                 0.3170                 0.3078

                     4                      5                      6
                     A                      A                      A
 Frequencies --   295.5815               365.3732               376.1653
 Red. masses --     4.4225                 2.7764                 1.9827
 Frc consts  --     0.2277                 0.2184                 0.1653
 IR Inten    --    15.7068               141.2956               180.4048

                     7                      8                      9
                     A                      A                      A
 Frequencies --   380.0078               400.4682               435.0998
 Red. masses --     1.1371                 2.4304                 3.0196
 Frc consts  --     0.0967                 0.2296                 0.3368
 IR Inten    --     8.9104                 0.6158                 0.0002

                    10                     11                     12
                     A                      A                      A
 Frequencies --   516.0309               544.9482               653.7109
 Red. masses --     2.6749                 6.8098                 6.5894
 Frc consts  --     0.4197                 1.1915                 1.6591
 IR Inten    --    10.3348                 2.7611                13.2699

                    13                     14                     15
                     A                      A                      A
 Frequencies --   657.5398               720.1451               797.7328
 Red. masses --     6.8881                 3.1566                 5.5373
 Frc consts  --     1.7547                 0.9645                 2.0762
 IR Inten    --     0.9140                11.0324                28.5479

                    16                     17                     18
                     A                      A                      A
 Frequencies --   840.9984               844.4636               879.7659
 Red. masses --     1.2581                 5.4874                 2.0296
 Frc consts  --     0.5243                 2.3056                 0.9255
 IR Inten    --     0.0335                 1.2222                36.8625

                    19                     20                     21
                     A                      A                      A
 Frequencies --   898.1926              1008.0268              1015.4652
 Red. masses --     9.1072                 1.3806                 1.3438
 Frc consts  --     4.3289                 0.8265                 0.8164
 IR Inten    --    30.6367                 0.9657                 0.0031

                    22                     23                     24
                     A                      A                      A
 Frequencies --  1037.6218              1071.9156              1148.7838
 Red. masses --     2.6626                 1.3931                 2.2437
 Frc consts  --     1.6890                 0.9431                 1.7446
 IR Inten    --     0.4118                 1.9490               133.1652

                    25                     26                     27
                     A                      A                      A
 Frequencies --  1153.4140              1217.4232              1346.2686
 Red. masses --     1.1762                 1.4393                 1.3507
 Frc consts  --     0.9219                 1.2569                 1.4423
 IR Inten    --    11.0703                11.0656                 0.0045

                    28                     29                     30
                     A                      A                      A
 Frequencies --  1347.5050              1368.9627              1425.3250
 Red. masses --     3.2054                 6.5002                12.2826
 Frc consts  --     3.4292                 7.1773                14.7017
 IR Inten    --   168.6084                 1.2061               505.1206

                    31                     32                     33
                     A                      A                      A
 Frequencies --  1499.9406              1562.1323              1619.9081
 Red. masses --     3.3952                 2.6720                11.0437
 Frc consts  --     4.5006                 3.8417                17.0743
 IR Inten    --     1.6174                56.5711               205.2785

                    34                     35                     36
                     A                      A                      A
 Frequencies --  1660.9163              1681.2956              1685.1798
 Red. masses --     1.3247                 8.2895                 4.0358
 Frc consts  --     2.1530                13.8060                 6.7525
 IR Inten    --    18.9373               117.3877               339.3210

                    37                     38                     39
                     A                      A                      A
 Frequencies --  3196.9648              3197.6139              3246.0839
 Red. masses --     1.0907                 1.0906                 1.0928
 Frc consts  --     6.5679                 6.5701                 6.7846
 IR Inten    --     6.0923                 9.6782                 1.1361

                    40                     41                     42
                     A                      A                      A
 Frequencies --  3246.2458              3615.6911              3721.0934
 Red. masses --     1.0936                 1.0463                 1.1025
 Frc consts  --     6.7899                 8.0588                 8.9940
 IR Inten    --     4.5037                82.2226                35.3888

 - Thermochemistry -
 -------------------
 Temperature   298.150 Kelvin.  Pressure   1.00000 Atm.
 Atom     1 has atomic number  6 and mass  12.00000

 Molecular mass:   138.04293 amu.
 Principal axes and moments of inertia in atomic units:
                           1         2         3
     Eigenvalues --   451.845322170.302752621.47778
           X            1.00000   0.00000   0.00236
           Y            0.00000   1.00000   0.00000
           Z           -0.00236   0.00000   1.00000
 This molecule is an asymmetric top.
 Rotational symmetry number  1.
 Warning -- assumption of classical behavior for rotation
           may cause significant error
 Rotational temperatures (Kelvin)      0.19169     0.03991     0.03304
 Rotational constants (GHZ):           3.99416     0.83156     0.68844
 Zero-point vibrational energy     317555.0 (Joules/Mol)
                                   75.89747 (Kcal/Mol)
 Warning -- explicit consideration of  11 degrees of freedom as
           vibrations may cause significant error
 Vibrational temperatures:     98.49   163.48   329.45   425.28   525.69
          (Kelvin)            541.22   546.75   576.18   626.01   742.45
                              784.06   940.54   946.05  1036.13  1147.76
                             1210.01  1214.99  1265.79  1292.30  1450.32
                             1461.03  1492.90  1542.25  1652.84  1659.50
                             1751.60  1936.98  1938.76  1969.63  2050.72
                             2158.08  2247.56  2330.68  2389.69  2419.01
                             2424.59  4599.71  4600.65  4670.38  4670.62
                             5202.17  5353.82

 Zero-point correction=                           0.120950 (Hartree/Particle)
 Thermal correction to Energy=                    0.129162
 Thermal correction to Enthalpy=                  0.130106
 Thermal correction to Gibbs Free Energy=         0.087644
 Sum of electronic and zero-point Energies=           -491.967770
 Sum of electronic and thermal Energies=              -491.959558
 Sum of electronic and thermal Enthalpies=            -491.958614
 Sum of electronic and thermal Free Energies=         -492.001076

                     E (Thermal)             CV                S
                      KCal/Mol        Cal/Mol-Kelvin    Cal/Mol-Kelvin
 Total                   81.050             31.444             89.369
 Electronic               0.000              0.000              0.000
 Translational            0.889              2.981             40.679
 Rotational               0.889              2.981             29.332
 Vibrational             79.273             25.483             19.358
 Vibration     1          0.598              1.969              4.197
 Vibration     2          0.607              1.938              3.206
 Vibration     3          0.652              1.797              1.887
 Vibration     4          0.690              1.682              1.442
 Vibration     5          0.739              1.544              1.099
 Vibration     6          0.747              1.521              1.055
 Vibration     7          0.750              1.513              1.039
 Vibration     8          0.766              1.469              0.961
 Vibration     9          0.796              1.394              0.842
 Vibration    10          0.871              1.214              0.619
 Vibration    11          0.900              1.151              0.555

 Optimization completed.
    -- Stationary point found.
 Normal termination of Gaussian 09 at Sun Oct 23 09:06:17 2022.
