 Gaussian 09, Revision A.02,
 Gaussian 09:  EM64L-G09RevA.02 11-Jun-2009

 ---------------------------------------------------------------------
 # opt=tight freq cam-b3lyp/gen geom=connectivity scf=qc int=ultrafine
 ---------------------------------------------------------------------

 ---------------------------
 NA+NH2 CAM-B3LYP def2-TZVPD
 ---------------------------
 Symbolic Z-matrix:
 Charge =  0 Multiplicity = 1

 SCF Done:  E(RCAM-B3LYP) =  -547.447100742     a.u. after    9 cycles
 SCF Done:  E(RCAM-B3LYP) =  -547.448110492     a.u. after    4 cycles
 SCF Done:  E(RCAM-B3LYP) =  -547.448206105     a.u. after    3 cycles
 SCF Done:  E(RCAM-B3LYP) =  -547.448237638     a.u. after    3 cycles
 SCF Done:  E(RCAM-B3LYP) =  -547.448224184     a.u. after    6 cycles
 SCF Done:  E(RCAM-B3LYP) =  -547.448257638     a.u. after    4 cycles
 SCF Done:  E(RCAM-B3LYP) =  -547.448265488     a.u. after    3 cycles
 SCF Done:  E(RCAM-B3LYP) =  -547.448269176     a.u. after    3 cycles
 SCF Done:  E(RCAM-B3LYP) =  -547.448269485     a.u. after    2 cycles
 SCF Done:  E(RCAM-B3LYP) =  -547.448269518     a.u. after    2 cycles
 SCF Done:  E(RCAM-B3LYP) =  -547.448269523     a.u. after    2 cycles
 SCF Done:  E(RCAM-B3LYP) =  -547.448269524     a.u. after    2 cycles
 Optimization completed.
    -- Stationary point found.
 Normal termination of Gaussian 09 at Thu Nov 24 15:10:23 2022.

 ----------------------------------------------------------------------
 #N Geom=AllCheck Guess=TCheck SCRF=Check GenChk RCAM-B3LYP/ChkBas Freq
 ----------------------------------------------------------------------

 NA+NH2 CAM-B3LYP def2-TZVPD
 ---------------------------
 Redundant internal coordinates taken from checkpoint file:
 /home/matheusmaximo/Gaussian/NH2/1.chk
 Charge =  0 Multiplicity = 1

                         Standard orientation:
 ---------------------------------------------------------------------
 Center     Atomic      Atomic             Coordinates (Angstroms)
 Number     Number       Type             X           Y           Z
 ---------------------------------------------------------------------
      1          6           0       -0.080943    0.969842   -0.000088
      2          6           0       -0.941488   -0.116184    0.001462
      3          6           0       -0.473874   -1.413514    0.027520
      4          6           0        0.890847   -1.621401    0.025874
      5          6           0        1.779440   -0.553742   -0.001651
      6          6           0        1.281544    0.762597    0.008784
      7          1           0       -0.492054    1.968930    0.002709
      8          1           0       -1.171097   -2.236396    0.037041
      9          1           0        1.280123   -2.631686    0.027802
     10          7           0       -2.379561    0.126670   -0.009250
     11          8           0       -3.120088   -0.836253    0.012918
     12          8           0       -2.761402    1.280923   -0.039540
     13          7           0        3.150732   -0.736910    0.007848
     14          1           0        3.465775   -1.674864   -0.178742
     15          1           0        3.674294   -0.039775   -0.501250
     16          7           0        2.204203    1.815680   -0.030366
     17          1           0        1.781723    2.729073    0.032502
     18          1           0        2.952376    1.723689    0.643889
 ---------------------------------------------------------------------

 SCF Done:  E(RCAM-B3LYP) =  -547.448269524     a.u. after    1 cycles

 The electronic state is 1-A.
 Alpha  occ. eigenvalues --  -19.22430 -19.22427 -14.62588 -14.41921 -14.41337
 Alpha  occ. eigenvalues --  -10.31237 -10.30517 -10.29966 -10.26871 -10.26727
 Alpha  occ. eigenvalues --  -10.26472  -1.31661  -1.13637  -1.05089  -1.00101
 Alpha  occ. eigenvalues --   -0.96059  -0.87258  -0.84038  -0.77063  -0.72236
 Alpha  occ. eigenvalues --   -0.67343  -0.63923  -0.62855  -0.61306  -0.60444
 Alpha  occ. eigenvalues --   -0.58226  -0.57895  -0.55973  -0.52258  -0.52020
 Alpha  occ. eigenvalues --   -0.50316  -0.47774  -0.44271  -0.41231  -0.40388
 Alpha  occ. eigenvalues --   -0.37757  -0.37471  -0.36018  -0.31460  -0.27804
 Alpha virt. eigenvalues --   -0.03838   0.01582   0.01994   0.03496   0.04331
 Alpha virt. eigenvalues --    0.06014   0.06489   0.06836   0.07431   0.09475
 Alpha virt. eigenvalues --    0.09992   0.10498   0.10953   0.11287   0.12569

 Mulliken atomic charges:
              1
     1  C   -0.413056
     2  C   -0.230213
     3  C   -0.439896
     4  C   -0.400360
     5  C    0.165887
     6  C    0.678036
     7  H    0.387926
     8  H    0.434569
     9  H    0.255722
    10  N    0.906212
    11  O   -0.591818
    12  O   -0.591466
    13  N   -0.484845
    14  H    0.205155
    15  H    0.252091
    16  N   -0.570963
    17  H    0.205856
    18  H    0.231163
 Sum of Mulliken atomic charges =   0.00000

 Dipole moment (field-independent basis, Debye):
    X=              6.6495    Y=             -0.2554    Z=              0.0840  Tot=              6.6549
 Quadrupole moment (field-independent basis, Debye-Ang):
   XX=            -69.9308   YY=            -55.7317   ZZ=            -65.9741
   XY=              0.4145   XZ=             -0.6713   YZ=              2.5823

  Exact polarizability: 157.147  -0.249 116.385   0.049  -0.285  60.285
 Approx polarizability: 178.276   1.259 159.866   0.375  -1.222  80.346

                     1                      2                      3
                     A                      A                      A
 Frequencies --    61.1763               116.3778               210.9496
 Red. masses --    10.3605                 5.6678                 3.4797
 Frc consts  --     0.0228                 0.0452                 0.0912
 IR Inten    --     0.0077                 0.2103                 0.6456

                     4                      5                      6
                     A                      A                      A
 Frequencies --   216.4062               245.6470               318.5829
 Red. masses --     5.4001                 1.1623                 3.5617
 Frc consts  --     0.1490                 0.0413                 0.2130
 IR Inten    --     1.8683                 7.8825                 0.0969

                     7                      8                      9
                     A                      A                      A
 Frequencies --   339.3321               369.7085               430.5105
 Red. masses --     4.1855                 9.0859                 4.8170
 Frc consts  --     0.2840                 0.7317                 0.5260
 IR Inten    --    13.2580                 0.0407                 0.9928

                    10                     11                     12
                     A                      A                      A
 Frequencies --   456.9843               473.4634               562.0706
 Red. masses --     2.0159                 1.2230                 6.8657
 Frc consts  --     0.2480                 0.1615                 1.2780
 IR Inten    --    22.1097                 9.0006                 3.5938

                    13                     14                     15
                     A                      A                      A
 Frequencies --   577.9687               583.3457               636.0189
 Red. masses --     3.4512                 3.9111                 1.6583
 Frc consts  --     0.6793                 0.7842                 0.3952
 IR Inten    --    24.1991                 6.7830               274.8474

                    16                     17                     18
                     A                      A                      A
 Frequencies --   674.5418               723.2065               777.0638
 Red. masses --     3.8326                 1.7894                 2.0036
 Frc consts  --     1.0275                 0.5514                 0.7128
 IR Inten    --    19.7068               134.2115               150.6152

                    19                     20                     21
                     A                      A                      A
 Frequencies --   792.5106               810.1427               855.5752
 Red. masses --     4.5329                 4.2967                 7.5871
 Frc consts  --     1.6774                 1.6615                 3.2722
 IR Inten    --    41.3621                 5.6664                17.1925

                    22                     23                     24
                     A                      A                      A
 Frequencies --   863.2928               937.8369               981.0051
 Red. masses --     1.8234                 1.5558                 4.3010
 Frc consts  --     0.8007                 0.8062                 2.4387
 IR Inten    --    18.4792                26.2825                17.5065

                    25                     26                     27
                     A                      A                      A
 Frequencies --   990.9663              1086.3026              1122.4252
 Red. masses --     1.3685                 1.5645                 1.7109
 Frc consts  --     0.7918                 1.0878                 1.2700
 IR Inten    --     0.0405                 8.6184                16.2103

                    28                     29                     30
                     A                      A                      A
 Frequencies --  1135.2048              1181.8193              1290.4334
 Red. masses --     1.4247                 1.2395                 3.2313
 Frc consts  --     1.0817                 1.0200                 3.1703
 IR Inten    --    57.7723                 9.1934                22.4063

                    31                     32                     33
                     A                      A                      A
 Frequencies --  1327.2219              1342.2430              1398.8188
 Red. masses --     1.8062                 2.5040                 4.8687
 Frc consts  --     1.8746                 2.6579                 5.6128
 IR Inten    --    29.1907               157.3072                29.4374

                    34                     35                     36
                     A                      A                      A
 Frequencies --  1425.1457              1502.6236              1569.2111
 Red. masses --    12.0236                 3.9223                 3.3404
 Frc consts  --    14.3881                 5.2178                 4.8463
 IR Inten    --   459.0469                 1.7241                99.5987

                    37                     38                     39
                     A                      A                      A
 Frequencies --  1627.1382              1635.9481              1667.3609
 Red. masses --     8.1734                 1.4979                 1.1367
 Frc consts  --    12.7498                 2.3620                 1.8620
 IR Inten    --   304.9004                61.5470                71.4236

                    40                     41                     42
                     A                      A                      A
 Frequencies --  1683.7082              1697.7978              3195.2555
 Red. masses --     4.4781                 5.0662                 1.0907
 Frc consts  --     7.4796                 8.6041                 6.5608
 IR Inten    --   131.8461                28.1342                 8.7972

                    43                     44                     45
                     A                      A                      A
 Frequencies --  3231.1159              3253.4441              3543.4673
 Red. masses --     1.0915                 1.0932                 1.0508
 Frc consts  --     6.7139                 6.8176                 7.7740
 IR Inten    --     4.2315                 3.5560                13.7517

                    46                     47                     48
                     A                      A                      A
 Frequencies --  3563.9894              3642.2811              3667.5141
 Red. masses --     1.0487                 1.0943                 1.0976
 Frc consts  --     7.8486                 8.5530                 8.6983
 IR Inten    --    42.1782                25.8180                31.2894

 - Thermochemistry -
 -------------------
 Temperature   298.150 Kelvin.  Pressure   1.00000 Atm.
 Atom     1 has atomic number  6 and mass  12.00000

 Molecular mass:   153.05383 amu.
 Principal axes and moments of inertia in atomic units:
                           1         2         3
     Eigenvalues --   710.877982448.133273153.60067
           X            0.99999   0.00462  -0.00071
           Y           -0.00461   0.99997   0.00686
           Z            0.00074  -0.00685   0.99998
 This molecule is an asymmetric top.
 Rotational symmetry number  1.
 Warning -- assumption of classical behavior for rotation
           may cause significant error
 Rotational temperatures (Kelvin)      0.12184     0.03538     0.02747
 Rotational constants (GHZ):           2.53875     0.73719     0.57228
 Zero-point vibrational energy     363635.8 (Joules/Mol)
                                   86.91104 (Kcal/Mol)
 Warning -- explicit consideration of  14 degrees of freedom as
           vibrations may cause significant error
 Vibrational temperatures:     88.02   167.44   303.51   311.36   353.43
          (Kelvin)            458.37   488.22   531.93   619.41   657.50
                              681.21   808.69   831.57   839.30   915.09
                              970.51  1040.53  1118.02  1140.24  1165.61
                             1230.98  1242.08  1349.34  1411.45  1425.78
                             1562.95  1614.92  1633.30  1700.37  1856.64
                             1909.57  1931.19  2012.59  2050.46  2161.94
                             2257.74  2341.09  2353.76  2398.96  2422.48
                             2442.75  4597.25  4648.85  4680.97  5098.25
                             5127.78  5240.42  5276.73

 Zero-point correction=                           0.138502 (Hartree/Particle)
 Thermal correction to Energy=                    0.147854
 Thermal correction to Enthalpy=                  0.148799
 Thermal correction to Gibbs Free Energy=         0.103863
 Sum of electronic and zero-point Energies=           -547.309768
 Sum of electronic and thermal Energies=              -547.300415
 Sum of electronic and thermal Enthalpies=            -547.299471
 Sum of electronic and thermal Free Energies=         -547.344406

                     E (Thermal)             CV                S
                      KCal/Mol        Cal/Mol-Kelvin    Cal/Mol-Kelvin
 Total                   92.780             36.312             94.574
 Electronic               0.000              0.000              0.000
 Translational            0.889              2.981             40.987
 Rotational               0.889              2.981             30.085
 Vibrational             91.003             30.351             23.502
 Vibration     1          0.597              1.973              4.419
 Vibration     2          0.608              1.936              3.160
 Vibration     3          0.643              1.824              2.035
 Vibration     4          0.645              1.816              1.989
 Vibration     5          0.660              1.770              1.762
 Vibration     6          0.705              1.638              1.317
 Vibration     7          0.719              1.597              1.215
 Vibration     8          0.742              1.534              1.081
 Vibration     9          0.792              1.404              0.857
 Vibration    10          0.815              1.345              0.775
 Vibration    11          0.830              1.309              0.728
 Vibration    12          0.918              1.113              0.520
 Vibration    13          0.934              1.079              0.489
 Vibration    14          0.940              1.067              0.479

 Optimization completed.
    -- Stationary point found.
 Normal termination of Gaussian 09 at Thu Nov 24 22:35:05 2022.
