 Gaussian 09, Revision A.02,
 Gaussian 09:  EM64L-G09RevA.02 11-Jun-2009

 ----------------------------------------------------
 # td=(nstates=15) cam-b3lyp/gen scf=qc int=ultrafine
 ----------------------------------------------------

 ----------------------------------------
 NA+CCH CAM-B3LYP def2-TZVPD Single point
 ----------------------------------------
 Symbolic Z-matrix:
 Charge =  0 Multiplicity = 1

                         Standard orientation:
 ---------------------------------------------------------------------
 Center     Atomic      Atomic             Coordinates (Angstroms)
 Number     Number       Type             X           Y           Z
 ---------------------------------------------------------------------
      1          6           0       -0.116957   -0.839786   -0.002728
      2          6           0       -1.149418    0.073753   -0.000731
      3          6           0       -0.901127    1.438598    0.001526
      4          6           0        0.395091    1.887941    0.000050
      5          6           0        1.469308    0.988690   -0.003575
      6          6           0        1.196310   -0.397826   -0.003444
      7          1           0       -0.337046   -1.896188   -0.002184
      8          1           0       -1.732147    2.127407    0.004055
      9          1           0        0.597359    2.951055   -0.001172
     10          7           0       -2.524400   -0.403855    0.000759
     11          8           0       -3.412328    0.426541    0.004418
     12          8           0       -2.710220   -1.604707   -0.001651
     13          7           0        2.749944    1.432224   -0.024702
     14          1           0        2.951215    2.407376    0.092451
     15          1           0        3.505609    0.776229    0.067016
     16          6           0        2.281299   -1.321600    0.000083
     17          6           0        3.221578   -2.062757    0.005126
     18          1           0        4.040085   -2.741201    0.007457
 ---------------------------------------------------------------------

 SCF Done:  E(RCAM-B3LYP) =  -568.221980415     a.u. after    9 cycles

 Excitation energies and oscillator strengths:

 Excited State   1:      Singlet-A      4.1057 eV  301.98 nm  f=0.0000  <S**2>=0.000
      39 -> 43         0.18893
      40 -> 43         0.64435
      40 -> 47         0.13052
      40 -> 48        -0.12021
 This state for optimization and/or second-order correction.
 Copying the excited state density for this state as the 1-particle RhoCI density.

 Excited State   2:      Singlet-A      4.3504 eV  284.99 nm  f=0.3006  <S**2>=0.000
      41 -> 44         0.11992
      42 -> 43         0.66938
      42 -> 44        -0.13456

 Excited State   3:      Singlet-A      4.4798 eV  276.76 nm  f=0.0738  <S**2>=0.000
      41 -> 43        -0.29053
      42 -> 43         0.14473
      42 -> 44         0.60947

 Excited State   4:      Singlet-A      4.6522 eV  266.51 nm  f=0.0004  <S**2>=0.000
      37 -> 43         0.61768
      37 -> 47         0.12411
      37 -> 48        -0.11419
      39 -> 43         0.26259

 Excited State   5:      Singlet-A      5.2525 eV  236.05 nm  f=0.2109  <S**2>=0.000
      41 -> 43         0.61681
      42 -> 44         0.30167

 Excited State   6:      Singlet-A      5.6395 eV  219.85 nm  f=0.0081  <S**2>=0.000
      42 -> 45         0.67310

 Excited State   7:      Singlet-A      5.7404 eV  215.99 nm  f=0.1884  <S**2>=0.000
      41 -> 43        -0.12014
      41 -> 44         0.56570
      42 -> 43        -0.10786
      42 -> 47        -0.23662
      42 -> 48         0.22105

 Excited State   8:      Singlet-A      5.9349 eV  208.91 nm  f=0.0008  <S**2>=0.000
      36 -> 50        -0.11811
      37 -> 44        -0.10376
      39 -> 44         0.35991
      40 -> 44        -0.13946
      41 -> 49        -0.14645
      41 -> 50        -0.19666
      42 -> 46         0.10491
      42 -> 49        -0.26428
      42 -> 50        -0.32368

 Excited State   9:      Singlet-A      6.0741 eV  204.12 nm  f=0.0001  <S**2>=0.000
      37 -> 44        -0.12723
      39 -> 44         0.46703
      40 -> 44        -0.19109
      41 -> 49         0.10466
      41 -> 50         0.14017
      42 -> 46        -0.10872
      42 -> 49         0.21194
      42 -> 50         0.26555

 Excited State  10:      Singlet-A      6.3272 eV  195.95 nm  f=0.1666  <S**2>=0.000
      35 -> 43        -0.10028
      38 -> 43        -0.10813
      41 -> 44         0.32661
      42 -> 46         0.11300
      42 -> 47         0.46319
      42 -> 48        -0.32438

 Excited State  11:      Singlet-A      6.4277 eV  192.89 nm  f=0.0202  <S**2>=0.000
      38 -> 43         0.20586
      41 -> 45         0.22470
      42 -> 46         0.50020
      42 -> 48         0.24093
      42 -> 49         0.17590
      42 -> 51         0.12413

 Excited State  12:      Singlet-A      6.4461 eV  192.34 nm  f=0.1380  <S**2>=0.000
      38 -> 43         0.64021
      42 -> 46        -0.14419
      42 -> 48        -0.13895

 Excited State  13:      Singlet-A      6.5416 eV  189.53 nm  f=0.0085  <S**2>=0.000
      42 -> 46        -0.26484
      42 -> 47         0.39307
      42 -> 48         0.44888
      42 -> 51         0.13550
      42 -> 52        -0.12327

 Excited State  14:      Singlet-A      6.7634 eV  183.32 nm  f=0.0001  <S**2>=0.000
      37 -> 43        -0.25571
      39 -> 43         0.59376
      39 -> 47        -0.10646
      40 -> 43        -0.18757

 Excited State  15:      Singlet-A      6.9597 eV  178.15 nm  f=0.0105  <S**2>=0.000
      41 -> 45         0.50173
      41 -> 46         0.11364
      41 -> 48         0.16555
      42 -> 46        -0.13991
      42 -> 49        -0.19138
      42 -> 50         0.24736
      42 -> 51        -0.15990

 The electronic state is 1-A.
 Alpha  occ. eigenvalues --  -19.22782 -19.22776 -14.63011 -14.42917 -10.33310
 Alpha  occ. eigenvalues --  -10.30407 -10.29420 -10.28492 -10.28257 -10.27239
 Alpha  occ. eigenvalues --  -10.27209 -10.26217  -1.32055  -1.14039  -1.04962
 Alpha  occ. eigenvalues --   -0.97613  -0.90297  -0.87835  -0.83777  -0.77914
 Alpha  occ. eigenvalues --   -0.74114  -0.69717  -0.65254  -0.63334  -0.61881
 Alpha  occ. eigenvalues --   -0.61733  -0.61672  -0.58543  -0.56394  -0.54044
 Alpha  occ. eigenvalues --   -0.52930  -0.50722  -0.50185  -0.44938  -0.41974
 Alpha  occ. eigenvalues --   -0.40468  -0.38367  -0.37816  -0.37011  -0.36355
 Alpha  occ. eigenvalues --   -0.32768  -0.28879
 Alpha virt. eigenvalues --   -0.04156  -0.01376   0.01659   0.03641   0.04123
 Alpha virt. eigenvalues --    0.04278   0.05645   0.05810   0.07098   0.07313
 Alpha virt. eigenvalues --    0.08478   0.09809   0.10680   0.10879   0.10966

 Mulliken atomic charges:
              1
     1  C   -0.458920
     2  C   -0.295726
     3  C   -0.342799
     4  C   -0.552772
     5  C    0.443561
     6  C    0.984105
     7  H    0.491909
     8  H    0.441885
     9  H    0.273714
    10  N    0.908586
    11  O   -0.592532
    12  O   -0.584895
    13  N   -0.358295
    14  H    0.156132
    15  H    0.180845
    16  C   -0.578063
    17  C   -0.571803
    18  H    0.455068
 Sum of Mulliken atomic charges =   0.00000

 Dipole moment (field-independent basis, Debye):
    X=              6.4104    Y=              2.6936    Z=              0.2808  Tot=              6.9590
 Quadrupole moment (field-independent basis, Debye-Ang):
   XX=            -71.7987   YY=            -60.7855   ZZ=            -71.4320
   XY=             -1.8329   XZ=              1.0523   YZ=              0.5647

 Normal termination of Gaussian 09 at Mon Mar 13 09:20:18 2023.
