 Gaussian 09, Revision A.02,
 Gaussian 09:  EM64L-G09RevA.02 11-Jun-2009

 ---------------------------------------------------
 # opt=tight freq cam-b3lyp/gen scf=qc int=ultrafine
 ---------------------------------------------------

 ---------------------------
 NA+NO2 CAM-B3LYP def2-TZVPD
 ---------------------------
 Symbolic Z-matrix:
 Charge =  0 Multiplicity = 1

 SCF Done:  E(RCAM-B3LYP) =  -696.599379775     a.u. after   10 cycles
 SCF Done:  E(RCAM-B3LYP) =  -696.601152227     a.u. after    7 cycles
 SCF Done:  E(RCAM-B3LYP) =  -696.601731745     a.u. after    6 cycles
 SCF Done:  E(RCAM-B3LYP) =  -696.604484070     a.u. after    7 cycles
 SCF Done:  E(RCAM-B3LYP) =  -696.605755868     a.u. after    8 cycles
 SCF Done:  E(RCAM-B3LYP) =  -696.608970594     a.u. after    7 cycles
 SCF Done:  E(RCAM-B3LYP) =  -696.613379756     a.u. after   29 cycles
 SCF Done:  E(RCAM-B3LYP) =  -696.615451607     a.u. after   26 cycles
 SCF Done:  E(RCAM-B3LYP) =  -696.616781332     a.u. after   29 cycles
 SCF Done:  E(RCAM-B3LYP) =  -696.616731923     a.u. after    7 cycles
 SCF Done:  E(RCAM-B3LYP) =  -696.616946413     a.u. after   30 cycles
 SCF Done:  E(RCAM-B3LYP) =  -696.617082893     a.u. after    4 cycles
 SCF Done:  E(RCAM-B3LYP) =  -696.617102419     a.u. after    3 cycles
 SCF Done:  E(RCAM-B3LYP) =  -696.617113567     a.u. after   31 cycles
 SCF Done:  E(RCAM-B3LYP) =  -696.617114746     a.u. after    3 cycles
 SCF Done:  E(RCAM-B3LYP) =  -696.617114960     a.u. after   30 cycles
 SCF Done:  E(RCAM-B3LYP) =  -696.617114979     a.u. after    2 cycles
 SCF Done:  E(RCAM-B3LYP) =  -696.617114982     a.u. after    2 cycles
 SCF Done:  E(RCAM-B3LYP) =  -696.617114977     a.u. after   30 cycles
 Optimization completed.
    -- Stationary point found.
 Normal termination of Gaussian 09 at Thu Jan 12 22:07:02 2023.

 ----------------------------------------------------------------------
 #N Geom=AllCheck Guess=TCheck SCRF=Check GenChk RCAM-B3LYP/ChkBas Freq
 ----------------------------------------------------------------------

 NA+NO2 CAM-B3LYP def2-TZVPD
 ---------------------------
 Redundant internal coordinates taken from checkpoint file:
 /home/matheusmaximo/Gaussian/subst/NO2/no2_s0.chk
 Charge =  0 Multiplicity = 1

                         Standard orientation:
 ---------------------------------------------------------------------
 Center     Atomic      Atomic             Coordinates (Angstroms)
 Number     Number       Type             X           Y           Z
 ---------------------------------------------------------------------
      1          6           0       -0.308589   -0.694980    0.000000
      2          6           0       -1.379766    0.156191    0.000001
      3          6           0       -1.197415    1.538010   -0.000003
      4          6           0        0.067062    2.048024   -0.000004
      5          6           0        1.210978    1.217671   -0.000002
      6          6           0        0.976605   -0.176328   -0.000001
      7          1           0       -0.452917   -1.763527   -0.000003
      8          1           0       -2.061535    2.185170   -0.000004
      9          1           0        0.215922    3.119754   -0.000011
     10          7           0       -2.730969   -0.391409    0.000003
     11          8           0       -3.653594    0.399100    0.000007
     12          8           0       -2.854882   -1.597800   -0.000004
     13          7           0        2.427511    1.782943   -0.000008
     14          1           0        2.510534    2.782681    0.000014
     15          1           0        3.245484    1.197287    0.000018
     16          7           0        2.065370   -1.138090    0.000000
     17          8           0        3.214627   -0.713089    0.000014
     18          8           0        1.793335   -2.316586   -0.000009
 ---------------------------------------------------------------------

 SCF Done:  E(RCAM-B3LYP) =  -696.617114982     a.u. after    1 cycles

 The electronic state is 1-A.
 Alpha  occ. eigenvalues --  -19.25393 -19.25268 -19.24224 -19.24213 -14.65701
 Alpha  occ. eigenvalues --  -14.64487 -14.44504 -10.36217 -10.33555 -10.32354
 Alpha  occ. eigenvalues --  -10.30645 -10.30384 -10.29305  -1.34665  -1.33576
 Alpha  occ. eigenvalues --   -1.16596  -1.15610  -1.06981  -0.99959  -0.93289
 Alpha  occ. eigenvalues --   -0.89690  -0.81786  -0.79603  -0.73866  -0.69607
 Alpha  occ. eigenvalues --   -0.66809  -0.64430  -0.64381  -0.63717  -0.63194
 Alpha  occ. eigenvalues --   -0.62271  -0.61526  -0.59667  -0.55299  -0.55037
 Alpha  occ. eigenvalues --   -0.52518  -0.51656  -0.47657  -0.44091  -0.40824
 Alpha  occ. eigenvalues --   -0.40269  -0.39583  -0.39265  -0.38894  -0.37847
 Alpha  occ. eigenvalues --   -0.37023  -0.31465
 Alpha virt. eigenvalues --   -0.06737  -0.05551   0.00879   0.01082   0.03381
 Alpha virt. eigenvalues --    0.03668   0.04113   0.05873   0.06270   0.06531
 Alpha virt. eigenvalues --    0.08552   0.09262   0.09853   0.09981   0.09984

 Mulliken atomic charges:
              1
     1  C   -0.068080
     2  C   -0.267659
     3  C   -0.317716
     4  C   -0.541536
     5  C    0.767323
     6  C   -0.364754
     7  H    0.581220
     8  H    0.456553
     9  H    0.257314
    10  N    0.920886
    11  O   -0.596430
    12  O   -0.578125
    13  N   -0.341854
    14  H    0.126619
    15  H    0.232295
    16  N    1.014708
    17  O   -0.696801
    18  O   -0.583961
 Sum of Mulliken atomic charges =   0.00000

 Dipole moment (field-independent basis, Debye):
    X=              3.0327    Y=              5.8412    Z=              0.0000  Tot=              6.5816
 Quadrupole moment (field-independent basis, Debye-Ang):
   XX=            -90.9238   YY=            -69.7323   ZZ=            -73.5038
   XY=              7.2231   XZ=              0.0002   YZ=              0.0001

  Exact polarizability: 165.555   5.273 133.827   0.000   0.000  59.753
 Approx polarizability: 195.905   8.920 184.599   0.000   0.000  81.470

                     1                      2                      3
                     A                      A                      A
 Frequencies --    53.7655                61.5987               113.9370
 Red. masses --    14.4236                13.3557                 6.5493
 Frc consts  --     0.0246                 0.0299                 0.0501
 IR Inten    --     0.1041                 0.4752                 0.8340

                     4                      5                      6
                     A                      A                      A
 Frequencies --   161.2702               173.7932               308.8718
 Red. masses --     5.3602                12.3774                 4.5595
 Frc consts  --     0.0821                 0.2203                 0.2563
 IR Inten    --     0.0288                 2.9228                11.6106

                     7                      8                      9
                     A                      A                      A
 Frequencies --   320.2242               337.3898               358.5469
 Red. masses --     7.6686                 1.2606                 9.8807
 Frc consts  --     0.4633                 0.0845                 0.7484
 IR Inten    --     1.0756               149.7599                 0.3655

                    10                     11                     12
                     A                      A                      A
 Frequencies --   381.3792               415.0356               457.5928
 Red. masses --     8.0012                 4.6465                 3.5685
 Frc consts  --     0.6857                 0.4716                 0.4402
 IR Inten    --     1.6191                 2.6071                 0.7297

                    13                     14                     15
                     A                      A                      A
 Frequencies --   529.9750               540.7287               585.5856
 Red. masses --     9.1910                 3.0373                 4.2911
 Frc consts  --     1.5210                 0.5232                 0.8670
 IR Inten    --     4.0503                15.4515                 4.6554

                    16                     17                     18
                     A                      A                      A
 Frequencies --   632.3810               665.4127               722.3954
 Red. masses --     1.0666                 7.6246                 4.2557
 Frc consts  --     0.2513                 1.9891                 1.3085
 IR Inten    --    16.1380                 9.8240                 5.1309

                    19                     20                     21
                     A                      A                      A
 Frequencies --   741.7569               792.1381               816.5406
 Red. masses --     8.6303                 5.8777                 4.8320
 Frc consts  --     2.7977                 2.1730                 1.8981
 IR Inten    --    37.7441                27.2576                 1.2738

                    22                     23                     24
                     A                      A                      A
 Frequencies --   852.2466               866.2183               874.6670
 Red. masses --     5.4814                 1.9145                13.3870
 Frc consts  --     2.3457                 0.8464                 6.0342
 IR Inten    --     2.8589                21.6194                16.3969

                    25                     26                     27
                     A                      A                      A
 Frequencies --   963.1994               998.8213              1026.1974
 Red. masses --     6.4439                 1.5075                 1.3360
 Frc consts  --     3.5223                 0.8861                 0.8290
 IR Inten    --    30.5351                 7.3760                 0.0235

                    28                     29                     30
                     A                      A                      A
 Frequencies --  1054.9946              1097.0151              1173.5174
 Red. masses --     1.5985                 1.8239                 2.2580
 Frc consts  --     1.0482                 1.2932                 1.8322
 IR Inten    --     2.9813                84.6809               106.5105

                    31                     32                     33
                     A                      A                      A
 Frequencies --  1197.0102              1299.1897              1331.4682
 Red. masses --     1.6718                 1.5988                 4.1867
 Frc consts  --     1.4113                 1.5900                 4.3731
 IR Inten    --     5.7136                16.5149               102.2649

                    34                     35                     36
                     A                      A                      A
 Frequencies --  1404.3489              1423.2713              1429.6538
 Red. masses --     3.7381                 9.3204                 9.3289
 Frc consts  --     4.3436                11.1239                11.2343
 IR Inten    --   141.3163               431.5086               167.8897

                    37                     38                     39
                     A                      A                      A
 Frequencies --  1484.0450              1543.4449              1607.4334
 Red. masses --     4.4862                 2.3836                 3.5196
 Frc consts  --     5.8213                 3.3455                 5.3580
 IR Inten    --    76.5865                18.1772               267.3503

                    40                     41                     42
                     A                      A                      A
 Frequencies --  1622.4100              1647.9275              1678.0404
 Red. masses --     8.7855                 2.1726                10.9446
 Frc consts  --    13.6250                 3.4761                18.1574
 IR Inten    --    77.2256                 8.5255               376.7834

                    43                     44                     45
                     A                      A                      A
 Frequencies --  1702.5036              3203.4418              3247.2802
 Red. masses --     7.4931                 1.0908                 1.0938
 Frc consts  --    12.7963                 6.5950                 6.7954
 IR Inten    --   410.0741                 3.4706                 5.2558

                    46                     47                     48
                     A                      A                      A
 Frequencies --  3266.8090              3587.8701              3727.3485
 Red. masses --     1.0914                 1.0465                 1.1038
 Frc consts  --     6.8625                 7.9375                 9.0352
 IR Inten    --    24.4709               148.9093               101.2189

 - Thermochemistry -
 -------------------
 Temperature   298.150 Kelvin.  Pressure   1.00000 Atm.
 Atom     1 has atomic number  6 and mass  12.00000

 Molecular mass:   183.02801 amu.
 Principal axes and moments of inertia in atomic units:
                           1         2         3
     Eigenvalues --  1184.577253210.868014395.44526
           X            0.99990   0.01391   0.00000
           Y           -0.01391   0.99990   0.00000
           Z            0.00000   0.00000   1.00000
 This molecule is an asymmetric top.
 Rotational symmetry number  1.
 Warning -- assumption of classical behavior for rotation
           may cause significant error
 Rotational temperatures (Kelvin)      0.07312     0.02698     0.01971
 Rotational constants (GHZ):           1.52353     0.56207     0.41059
 Zero-point vibrational energy     325866.9 (Joules/Mol)
                                   77.88406 (Kcal/Mol)
 Warning -- explicit consideration of  15 degrees of freedom as
           vibrations may cause significant error
 Vibrational temperatures:     77.36    88.63   163.93   232.03   250.05
          (Kelvin)            444.40   460.73   485.43   515.87   548.72
                              597.14   658.37   762.51   777.99   842.53
                              909.85   957.38  1039.36  1067.22  1139.71
                             1174.82  1226.19  1246.29  1258.45  1385.83
                             1437.08  1476.47  1517.90  1578.36  1688.43
                             1722.23  1869.24  1915.68  2020.54  2047.77
                             2056.95  2135.21  2220.67  2312.74  2334.28
                             2371.00  2414.32  2449.52  4609.03  4672.11
                             4700.20  5162.14  5362.82

 Zero-point correction=                           0.124116 (Hartree/Particle)
 Thermal correction to Energy=                    0.134579
 Thermal correction to Enthalpy=                  0.135524
 Thermal correction to Gibbs Free Energy=         0.086994
 Sum of electronic and zero-point Energies=           -696.492999
 Sum of electronic and thermal Energies=              -696.482536
 Sum of electronic and thermal Enthalpies=            -696.481591
 Sum of electronic and thermal Free Energies=         -696.530121

                     E (Thermal)             CV                S
                      KCal/Mol        Cal/Mol-Kelvin    Cal/Mol-Kelvin
 Total                   84.450             39.223            102.139
 Electronic               0.000              0.000              0.000
 Translational            0.889              2.981             41.520
 Rotational               0.889              2.981             31.192
 Vibrational             82.672             33.261             29.427
 Vibration     1          0.596              1.976              4.674
 Vibration     2          0.597              1.973              4.405
 Vibration     3          0.607              1.938              3.201
 Vibration     4          0.622              1.890              2.535
 Vibration     5          0.627              1.875              2.394
 Vibration     6          0.698              1.657              1.368
 Vibration     7          0.706              1.635              1.309
 Vibration     8          0.718              1.601              1.224
 Vibration     9          0.733              1.558              1.128
 Vibration    10          0.751              1.510              1.034
 Vibration    11          0.778              1.438              0.909
 Vibration    12          0.816              1.344              0.773
 Vibration    13          0.885              1.184              0.587
 Vibration    14          0.896              1.160              0.564
 Vibration    15          0.943              1.063              0.475

 Optimization completed.
    -- Stationary point found.
 Normal termination of Gaussian 09 at Fri Jan 13 07:29:48 2023.
