 Gaussian 09, Revision A.02,
 Gaussian 09:  EM64L-G09RevA.02 11-Jun-2009

 ---------------------------------------------------------------------
 # opt=tight freq cam-b3lyp/gen geom=connectivity scf=qc int=ultrafine
 ---------------------------------------------------------------------

 -------------------------
 NA+F CAM-B3LYP def2-TZVPD
 -------------------------
 Symbolic Z-matrix:
 Charge =  0 Multiplicity = 1

 SCF Done:  E(RCAM-B3LYP) =  -591.352042633     a.u. after    9 cycles
 Optimization completed.
    -- Stationary point found.
 Normal termination of Gaussian 09 at Fri Nov 18 03:36:34 2022.

 ----------------------------------------------------------------------
 #N Geom=AllCheck Guess=TCheck SCRF=Check GenChk RCAM-B3LYP/ChkBas Freq
 ----------------------------------------------------------------------

 NA+F CAM-B3LYP def2-TZVPD
 -------------------------
 Redundant internal coordinates taken from checkpoint file:
 /home/matheusmaximo/Gaussian/F/1.chk
 Charge =  0 Multiplicity = 1

                         Standard orientation:
 ---------------------------------------------------------------------
 Center     Atomic      Atomic             Coordinates (Angstroms)
 Number     Number       Type             X           Y           Z
 ---------------------------------------------------------------------
      1          6           0        0.092052    0.992819   -0.001734
      2          6           0        0.931888   -0.110114   -0.001166
      3          6           0        0.429916   -1.397650   -0.000265
      4          6           0       -0.934419   -1.593462   -0.002352
      5          6           0       -1.816497   -0.511626   -0.005088
      6          6           0       -1.254189    0.767297   -0.003300
      7          1           0        0.488843    1.996410    0.001399
      8          1           0        1.113652   -2.232372    0.001476
      9          1           0       -1.335069   -2.598662   -0.006365
     10          7           0        2.372924    0.102157    0.001381
     11          8           0        3.090489   -0.878073    0.004545
     12          8           0        2.776346    1.248412    0.000456
     13          7           0       -3.172344   -0.659116   -0.044715
     14          1           0       -3.568847   -1.553063    0.181573
     15          1           0       -3.744673    0.145411    0.141088
     16          9           0       -2.109462    1.810522    0.003065
 ---------------------------------------------------------------------

 SCF Done:  E(RCAM-B3LYP) =  -591.352042633     a.u. after    1 cycles

 The electronic state is 1-A.
 Alpha  occ. eigenvalues --  -24.79186 -19.23162 -19.23154 -14.63395 -14.43177
 Alpha  occ. eigenvalues --  -10.35353 -10.33244 -10.31121 -10.28549 -10.28236
 Alpha  occ. eigenvalues --  -10.27773  -1.33374  -1.32450  -1.14448  -1.04777
 Alpha  occ. eigenvalues --   -0.98053  -0.88823  -0.86755  -0.78741  -0.73824
 Alpha  occ. eigenvalues --   -0.69619  -0.65545  -0.64000  -0.62261  -0.62124
 Alpha  occ. eigenvalues --   -0.60386  -0.58474  -0.57414  -0.56335  -0.53814
 Alpha  occ. eigenvalues --   -0.51889  -0.48815  -0.48370  -0.45777  -0.42275
 Alpha  occ. eigenvalues --   -0.38518  -0.38214  -0.36786  -0.34164  -0.29748
 Alpha virt. eigenvalues --   -0.04639   0.00753   0.01469   0.03563   0.04140
 Alpha virt. eigenvalues --    0.05075   0.06729   0.06938   0.07112   0.09144
 Alpha virt. eigenvalues --    0.10026   0.10227   0.10819   0.11109   0.12571

 Mulliken atomic charges:
              1
     1  C   -0.315038
     2  C   -0.305534
     3  C   -0.530790
     4  C   -0.489446
     5  C    0.276759
     6  C    0.820254
     7  H    0.474930
     8  H    0.439600
     9  H    0.253362
    10  N    0.913877
    11  O   -0.586020
    12  O   -0.589572
    13  N   -0.418082
    14  H    0.194106
    15  H    0.219408
    16  F   -0.357813
 Sum of Mulliken atomic charges =   0.00000

 Dipole moment (field-independent basis, Debye):
    X=             -5.9642    Y=             -2.1543    Z=              0.5744  Tot=              6.3673
 Quadrupole moment (field-independent basis, Debye-Ang):
   XX=            -66.7189   YY=            -59.3628   ZZ=            -63.5503
   XY=              4.2509   XZ=             -2.4169   YZ=             -0.5090

  Exact polarizability: 148.306   5.819 102.346   0.335  -0.040  54.000
 Approx polarizability: 167.932   2.438 144.701   0.733  -0.055  71.824

                     1                      2                      3
                     A                      A                      A
 Frequencies --    63.9651               116.0472               213.2578
 Red. masses --    12.8927                 5.8111                 9.0569
 Frc consts  --     0.0311                 0.0461                 0.2427
 IR Inten    --     0.2369                 0.1834                 1.0955

                     4                      5                      6
                     A                      A                      A
 Frequencies --   221.2592               301.1469               322.4455
 Red. masses --     6.2026                 4.1599                 1.5165
 Frc consts  --     0.1789                 0.2223                 0.0929
 IR Inten    --     0.8697                16.2602               175.7084

                     7                      8                      9
                     A                      A                      A
 Frequencies --   352.8709               368.1651               423.1217
 Red. masses --     3.6459                 6.9274                 1.2532
 Frc consts  --     0.2675                 0.5532                 0.1322
 IR Inten    --    81.7141                12.1915                37.1879

                    10                     11                     12
                     A                      A                      A
 Frequencies --   433.4377               468.1336               558.8377
 Red. masses --     3.6742                 2.9395                 8.0514
 Frc consts  --     0.4067                 0.3795                 1.4815
 IR Inten    --     2.6013                 3.1492                 4.4368

                    13                     14                     15
                     A                      A                      A
 Frequencies --   581.9679               584.0761               667.0475
 Red. masses --     4.4983                 4.5104                 7.4794
 Frc consts  --     0.8976                 0.9066                 1.9608
 IR Inten    --     2.0554                 0.1129                10.0281

                    16                     17                     18
                     A                      A                      A
 Frequencies --   747.4788               791.3122               817.6520
 Red. masses --     3.4103                 4.8350                 5.4937
 Frc consts  --     1.1226                 1.7838                 2.1640
 IR Inten    --     2.4378                33.4583                38.3706

                    19                     20                     21
                     A                      A                      A
 Frequencies --   852.8497               860.8340               951.4812
 Red. masses --     6.7577                 1.8031                 1.5067
 Frc consts  --     2.8960                 0.7872                 0.8037
 IR Inten    --    11.8540                14.2440                18.7997

                    22                     23                     24
                     A                      A                      A
 Frequencies --   971.9524              1003.7784              1067.5797
 Red. masses --     4.5639                 1.3598                 1.5434
 Frc consts  --     2.5402                 0.8072                 1.0364
 IR Inten    --    21.8557                 0.0901                 2.1527

                    25                     26                     27
                     A                      A                      A
 Frequencies --  1107.6962              1175.9156              1255.0515
 Red. masses --     1.8034                 1.2310                 5.5924
 Frc consts  --     1.3037                 1.0029                 5.1900
 IR Inten    --    64.0540                14.1584               128.2697

                    28                     29                     30
                     A                      A                      A
 Frequencies --  1288.7858              1362.1407              1386.6837
 Red. masses --     1.5817                 3.5879                 4.1556
 Frc consts  --     1.5478                 3.9222                 4.7081
 IR Inten    --     2.1857               152.6634                79.9203

                    31                     32                     33
                     A                      A                      A
 Frequencies --  1425.5271              1498.8891              1573.4802
 Red. masses --    11.5338                 4.6759                 3.4280
 Frc consts  --    13.8094                 6.1895                 5.0005
 IR Inten    --   468.4020                 4.2843               126.0112

                    34                     35                     36
                     A                      A                      A
 Frequencies --  1629.2384              1649.6966              1683.0103
 Red. masses --    11.5784                 1.3649                 6.9384
 Frc consts  --    18.1078                 2.1886                11.5794
 IR Inten    --   330.4718                41.9508                53.2180

                    37                     38                     39
                     A                      A                      A
 Frequencies --  1693.9425              3202.9423              3250.6978
 Red. masses --     5.2566                 1.0908                 1.0932
 Frc consts  --     8.8869                 6.5932                 6.8064
 IR Inten    --   231.3296                 5.4466                 3.5610

                    40                     41                     42
                     A                      A                      A
 Frequencies --  3253.0242              3619.6227              3729.6317
 Red. masses --     1.0928                 1.0457                 1.1034
 Frc consts  --     6.8133                 8.0721                 9.0432
 IR Inten    --    10.6277               108.9712                51.8282

 - Thermochemistry -
 -------------------
 Temperature   298.150 Kelvin.  Pressure   1.00000 Atm.
 Atom     1 has atomic number  6 and mass  12.00000

 Molecular mass:   156.03351 amu.
 Principal axes and moments of inertia in atomic units:
                           1         2         3
     Eigenvalues --   713.361872472.921703185.71603
           X            0.99975   0.02212  -0.00170
           Y           -0.02213   0.99975  -0.00140
           Z            0.00167   0.00144   1.00000
 This molecule is an asymmetric top.
 Rotational symmetry number  1.
 Warning -- assumption of classical behavior for rotation
           may cause significant error
 Rotational temperatures (Kelvin)      0.12142     0.03502     0.02719
 Rotational constants (GHZ):           2.52991     0.72980     0.56651
 Zero-point vibrational energy     296235.3 (Joules/Mol)
                                   70.80194 (Kcal/Mol)
 Warning -- explicit consideration of  14 degrees of freedom as
           vibrations may cause significant error
 Vibrational temperatures:     92.03   166.97   306.83   318.34   433.28
          (Kelvin)            463.93   507.70   529.71   608.78   623.62
                              673.54   804.04   837.32   840.35   959.73
                             1075.45  1138.52  1176.42  1227.06  1238.55
                             1368.97  1398.42  1444.21  1536.01  1593.73
                             1691.88  1805.74  1854.27  1959.81  1995.13
                             2051.01  2156.56  2263.88  2344.11  2373.54
                             2421.47  2437.20  4608.31  4677.02  4680.37
                             5207.82  5366.10

 Zero-point correction=                           0.112830 (Hartree/Particle)
 Thermal correction to Energy=                    0.121853
 Thermal correction to Enthalpy=                  0.122797
 Thermal correction to Gibbs Free Energy=         0.078367
 Sum of electronic and zero-point Energies=           -591.239213
 Sum of electronic and thermal Energies=              -591.230190
 Sum of electronic and thermal Enthalpies=            -591.229245
 Sum of electronic and thermal Free Energies=         -591.273676

                     E (Thermal)             CV                S
                      KCal/Mol        Cal/Mol-Kelvin    Cal/Mol-Kelvin
 Total                   76.464             34.321             93.511
 Electronic               0.000              0.000              0.000
 Translational            0.889              2.981             41.044
 Rotational               0.889              2.981             30.109
 Vibrational             74.686             28.359             22.358
 Vibration     1          0.597              1.972              4.331
 Vibration     2          0.608              1.936              3.165
 Vibration     3          0.644              1.821              2.016
 Vibration     4          0.648              1.809              1.949
 Vibration     5          0.693              1.672              1.411
 Vibration     6          0.707              1.630              1.298
 Vibration     7          0.729              1.569              1.153
 Vibration     8          0.741              1.538              1.087
 Vibration     9          0.785              1.420              0.881
 Vibration    10          0.794              1.397              0.847
 Vibration    11          0.825              1.321              0.743
 Vibration    12          0.914              1.120              0.526
 Vibration    13          0.939              1.070              0.482
 Vibration    14          0.941              1.066              0.478

 Optimization completed.
    -- Stationary point found.
 Normal termination of Gaussian 09 at Fri Nov 18 15:21:52 2022.
