 Gaussian 09, Revision A.02,
 Gaussian 09:  EM64L-G09RevA.02 11-Jun-2009

 ---------------------------------------------------
 # opt=tight freq cam-b3lyp/gen scf=qc int=ultrafine
 ---------------------------------------------------

 ----------------------------
 NA+COOH CAM-B3LYP def2-TZVPD
 ----------------------------
 Symbolic Z-matrix:
 Charge =  0 Multiplicity = 1

 SCF Done:  E(RCAM-B3LYP) =  -680.689298804     a.u. after    9 cycles
 SCF Done:  E(RCAM-B3LYP) =  -680.691030201     a.u. after    9 cycles
 SCF Done:  E(RCAM-B3LYP) =  -680.693178570     a.u. after    5 cycles
 SCF Done:  E(RCAM-B3LYP) =  -680.693343167     a.u. after    4 cycles
 SCF Done:  E(RCAM-B3LYP) =  -680.693352297     a.u. after   29 cycles
 SCF Done:  E(RCAM-B3LYP) =  -680.693333876     a.u. after    3 cycles
 SCF Done:  E(RCAM-B3LYP) =  -680.693352786     a.u. after    3 cycles
 SCF Done:  E(RCAM-B3LYP) =  -680.693353164     a.u. after   28 cycles
 SCF Done:  E(RCAM-B3LYP) =  -680.693353477     a.u. after    2 cycles
 SCF Done:  E(RCAM-B3LYP) =  -680.693353480     a.u. after    2 cycles
 Optimization completed.
    -- Stationary point found.
 Normal termination of Gaussian 09 at Fri Feb 17 08:23:08 2023.

 ----------------------------------------------------------------------
 #N Geom=AllCheck Guess=TCheck SCRF=Check GenChk RCAM-B3LYP/ChkBas Freq
 ----------------------------------------------------------------------

 NA+COOH CAM-B3LYP def2-TZVPD
 ----------------------------
 Redundant internal coordinates taken from checkpoint file:
 /home/matheusmaximo/Gaussian/substituent/cooh/structure2/cooh_s0.chk
 Charge =  0 Multiplicity = 1

                         Standard orientation:
 ---------------------------------------------------------------------
 Center     Atomic      Atomic             Coordinates (Angstroms)
 Number     Number       Type             X           Y           Z
 ---------------------------------------------------------------------
      1          6           0       -0.298778   -0.671403   -0.000003
      2          6           0       -1.403279    0.142716    0.000003
      3          6           0       -1.270981    1.529492    0.000010
      4          6           0       -0.024461    2.086026    0.000010
      5          6           0        1.137093    1.285949    0.000003
      6          6           0        0.978536   -0.122941   -0.000002
      7          1           0       -0.428111   -1.741932   -0.000006
      8          1           0       -2.158429    2.144372    0.000015
      9          1           0        0.086728    3.162510    0.000014
     10          7           0       -2.731971   -0.449973    0.000003
     11          8           0       -3.685544    0.304560    0.000002
     12          8           0       -2.816761   -1.661706    0.000002
     13          7           0        2.348035    1.868660   -0.000005
     14          1           0        2.426163    2.868398    0.000012
     15          1           0        3.172063    1.286418   -0.000008
     16          6           0        2.153815   -1.001280   -0.000003
     17          8           0        3.307316   -0.628155    0.000005
     18          8           0        1.853214   -2.308388   -0.000022
     19          1           0        2.691675   -2.792417   -0.000024
 ---------------------------------------------------------------------

 SCF Done:  E(RCAM-B3LYP) =  -680.693353480     a.u. after    1 cycles

 The electronic state is 1-A.
 Alpha  occ. eigenvalues --  -19.26806 -19.23085 -19.23064 -19.21234 -14.63323
 Alpha  occ. eigenvalues --  -14.42737 -10.40826 -10.34099 -10.30734 -10.29075
 Alpha  occ. eigenvalues --  -10.28948 -10.28765 -10.27639  -1.32365  -1.22032
 Alpha  occ. eigenvalues --   -1.14355  -1.12501  -1.04996  -0.97972  -0.89580
 Alpha  occ. eigenvalues --   -0.88019  -0.78227  -0.77097  -0.72906  -0.67556
 Alpha  occ. eigenvalues --   -0.64901  -0.63012  -0.62060  -0.61977  -0.60267
 Alpha  occ. eigenvalues --   -0.58420  -0.57991  -0.55838  -0.53957  -0.53071
 Alpha  occ. eigenvalues --   -0.51032  -0.49559  -0.49010  -0.45639  -0.42584
 Alpha  occ. eigenvalues --   -0.41420  -0.38686  -0.38171  -0.37445  -0.36710
 Alpha  occ. eigenvalues --   -0.35299  -0.29760
 Alpha virt. eigenvalues --   -0.04394  -0.03054   0.01343   0.02498   0.03544
 Alpha virt. eigenvalues --    0.04093   0.04937   0.06383   0.06947   0.07009
 Alpha virt. eigenvalues --    0.08703   0.08706   0.09552   0.10167   0.10440

 Mulliken atomic charges:
              1
     1  C   -0.217313
     2  C   -0.393690
     3  C   -0.327643
     4  C   -0.564910
     5  C    0.501718
     6  C   -0.153735
     7  H    0.559644
     8  H    0.454393
     9  H    0.285535
    10  N    0.915752
    11  O   -0.596675
    12  O   -0.587039
    13  N   -0.288383
    14  H    0.110059
    15  H    0.233697
    16  C    0.746823
    17  O   -0.612937
    18  O   -0.394167
    19  H    0.328872
 Sum of Mulliken atomic charges =   0.00000

 Dipole moment (field-independent basis, Debye):
    X=              4.6271    Y=              2.8090    Z=              0.0000  Tot=              5.4130
 Quadrupole moment (field-independent basis, Debye-Ang):
   XX=            -90.1353   YY=            -61.3808   ZZ=            -75.0468
   XY=             -3.8261   XZ=              0.0000   YZ=              0.0001

  Exact polarizability: 170.168   5.835 133.180   0.000   0.000  62.406
 Approx polarizability: 198.358   5.933 173.911   0.000   0.000  84.846

                     1                      2                      3
                     A                      A                      A
 Frequencies --    57.3950                71.6829               117.8033
 Red. masses --    13.3341                11.1650                 7.4789
 Frc consts  --     0.0259                 0.0338                 0.0612
 IR Inten    --     0.0381                 1.0045                 1.6563

                     4                      5                      6
                     A                      A                      A
 Frequencies --   151.2777               164.9401               292.5665
 Red. masses --     4.6051                 9.7759                 6.3815
 Frc consts  --     0.0621                 0.1567                 0.3218
 IR Inten    --     3.1419                 2.3316                 1.5760

                     7                      8                      9
                     A                      A                      A
 Frequencies --   305.2639               322.8040               357.4195
 Red. masses --     4.6275                 1.2337                 7.9183
 Frc consts  --     0.2541                 0.0757                 0.5960
 IR Inten    --    17.3755               133.3472                 1.6712

                    10                     11                     12
                     A                      A                      A
 Frequencies --   369.6177               422.6864               448.8384
 Red. masses --     7.6189                 5.6933                 3.0110
 Frc consts  --     0.6133                 0.5993                 0.3574
 IR Inten    --     4.7828                 1.4429                 2.7827

                    13                     14                     15
                     A                      A                      A
 Frequencies --   506.0673               536.1147               572.2505
 Red. masses --     6.1719                 2.8889                 4.7429
 Frc consts  --     0.9313                 0.4892                 0.9151
 IR Inten    --    12.1087                 7.2049                 0.2479

                    16                     17                     18
                     A                      A                      A
 Frequencies --   591.1927               656.6637               663.4348
 Red. masses --     1.2203                 1.0561                 7.0530
 Frc consts  --     0.2513                 0.2683                 1.8290
 IR Inten    --    96.5732                15.6977                19.7842

                    19                     20                     21
                     A                      A                      A
 Frequencies --   685.8132               731.6830               793.6982
 Red. masses --     4.9433                 4.0703                 5.1761
 Frc consts  --     1.3699                 1.2839                 1.9211
 IR Inten    --    71.2109                27.1136                16.5820

                    22                     23                     24
                     A                      A                      A
 Frequencies --   796.0680               829.6688               857.9433
 Red. masses --     6.1315                 3.2946                 7.0509
 Frc consts  --     2.2894                 1.3362                 3.0578
 IR Inten    --    17.4506                10.7148                 5.8506

                    25                     26                     27
                     A                      A                      A
 Frequencies --   869.6771               953.2499               999.2063
 Red. masses --     2.2032                 6.4989                 1.5111
 Frc consts  --     0.9818                 3.4794                 0.8889
 IR Inten    --    30.3665                19.8770                 4.5668

                    28                     29                     30
                     A                      A                      A
 Frequencies --  1024.0256              1067.8043              1101.9685
 Red. masses --     1.3412                 1.6532                 2.3172
 Frc consts  --     0.8287                 1.1106                 1.6579
 IR Inten    --     0.0159                 0.4691                67.2448

                    31                     32                     33
                     A                      A                      A
 Frequencies --  1158.1930              1184.5577              1217.6830
 Red. masses --     2.7323                 1.2164                 2.1218
 Frc consts  --     2.1594                 1.0056                 1.8536
 IR Inten    --   206.5310               131.7672               140.7142

                    34                     35                     36
                     A                      A                      A
 Frequencies --  1311.8467              1352.4671              1384.5564
 Red. masses --     1.5187                 2.7287                 3.2903
 Frc consts  --     1.5399                 2.9407                 3.7162
 IR Inten    --    12.5295                29.5525               106.4992

                    37                     38                     39
                     A                      A                      A
 Frequencies --  1423.3527              1429.8188              1492.8811
 Red. masses --     8.4743                 6.4027                 4.9306
 Frc consts  --    10.1153                 7.7121                 6.4745
 IR Inten    --   378.4494               280.2711                13.7131

                    40                     41                     42
                     A                      A                      A
 Frequencies --  1538.9565              1612.3530              1631.0242
 Red. masses --     2.3846                 5.7413                 2.1133
 Frc consts  --     3.3275                 8.7939                 3.3122
 IR Inten    --    34.8270                73.8164               117.2954

                    43                     44                     45
                     A                      A                      A
 Frequencies --  1665.2882              1694.0673              1786.1079
 Red. masses --     4.1390                 6.5749                 7.9032
 Frc consts  --     6.7627                11.1173                14.8548
 IR Inten    --   352.3504               246.2439               469.5982

                    46                     47                     48
                     A                      A                      A
 Frequencies --  3200.3014              3245.4730              3263.8366
 Red. masses --     1.0907                 1.0936                 1.0914
 Frc consts  --     6.5814                 6.7865                 6.8501
 IR Inten    --     5.5370                 4.0167                11.4455

                    49                     50                     51
                     A                      A                      A
 Frequencies --  3551.2978              3718.8193              3777.5743
 Red. masses --     1.0517                 1.0991                 1.0644
 Frc consts  --     7.8149                 8.9557                 8.9494
 IR Inten    --   184.7582                95.1212               135.1029

 - Thermochemistry -
 -------------------
 Temperature   298.150 Kelvin.  Pressure   1.00000 Atm.
 Atom     1 has atomic number  6 and mass  12.00000

 Molecular mass:   182.03276 amu.
 Principal axes and moments of inertia in atomic units:
                           1         2         3
     Eigenvalues --  1222.681883251.899064474.58095
           X            1.00000   0.00007   0.00000
           Y           -0.00007   1.00000   0.00000
           Z            0.00000   0.00000   1.00000
 This molecule is an asymmetric top.
 Rotational symmetry number  1.
 Warning -- assumption of classical behavior for rotation
           may cause significant error
 Rotational temperatures (Kelvin)      0.07084     0.02663     0.01936
 Rotational constants (GHZ):           1.47605     0.55498     0.40333
 Zero-point vibrational energy     358636.1 (Joules/Mol)
                                   85.71610 (Kcal/Mol)
 Warning -- explicit consideration of  16 degrees of freedom as
           vibrations may cause significant error
 Vibrational temperatures:     82.58   103.14   169.49   217.65   237.31
          (Kelvin)            420.94   439.21   464.44   514.25   531.80
                              608.15   645.78   728.12   771.35   823.34
                              850.59   944.79   954.53   986.73  1052.73
                             1141.95  1145.36  1193.71  1234.39  1251.27
                             1371.51  1437.63  1473.34  1536.33  1585.48
                             1666.38  1704.31  1751.97  1887.45  1945.90
                             1992.07  2047.88  2057.19  2147.92  2214.21
                             2319.81  2346.68  2395.98  2437.38  2569.81
                             4604.51  4669.51  4695.93  5109.52  5350.54
                             5435.08

 Zero-point correction=                           0.136597 (Hartree/Particle)
 Thermal correction to Energy=                    0.147356
 Thermal correction to Enthalpy=                  0.148300
 Thermal correction to Gibbs Free Energy=         0.099428
 Sum of electronic and zero-point Energies=           -680.556756
 Sum of electronic and thermal Energies=              -680.545998
 Sum of electronic and thermal Enthalpies=            -680.545053
 Sum of electronic and thermal Free Energies=         -680.593925

                     E (Thermal)             CV                S
                      KCal/Mol        Cal/Mol-Kelvin    Cal/Mol-Kelvin
 Total                   92.467             40.807            102.859
 Electronic               0.000              0.000              0.000
 Translational            0.889              2.981             41.504
 Rotational               0.889              2.981             31.254
 Vibrational             90.690             34.845             30.102
 Vibration     1          0.596              1.975              4.545
 Vibration     2          0.598              1.968              4.107
 Vibration     3          0.608              1.935              3.136
 Vibration     4          0.619              1.901              2.656
 Vibration     5          0.623              1.886              2.492
 Vibration     6          0.688              1.688              1.459
 Vibration     7          0.696              1.664              1.388
 Vibration     8          0.708              1.630              1.296
 Vibration     9          0.733              1.560              1.133
 Vibration    10          0.742              1.535              1.081
 Vibration    11          0.785              1.421              0.883
 Vibration    12          0.808              1.363              0.799
 Vibration    13          0.861              1.237              0.643
 Vibration    14          0.891              1.170              0.574
 Vibration    15          0.928              1.091              0.500
 Vibration    16          0.949              1.051              0.465

 Optimization completed.
    -- Stationary point found.
 Normal termination of Gaussian 09 at Fri Feb 17 18:35:01 2023.
