 Gaussian 09, Revision A.02,
 Gaussian 09:  EM64L-G09RevA.02 11-Jun-2009

 ---------------------------------------------------------------------
 # opt=tight freq cam-b3lyp/gen geom=connectivity scf=qc int=ultrafine
 ---------------------------------------------------------------------

 --------------------------
 NA+OH CAM-B3LYP def2-TZVPD
 --------------------------
 Symbolic Z-matrix:
 Charge =  0 Multiplicity = 1

 SCF Done:  E(RCAM-B3LYP) =  -567.301939117     a.u. after    9 cycles
 SCF Done:  E(RCAM-B3LYP) =  -567.313117707     a.u. after    8 cycles
 SCF Done:  E(RCAM-B3LYP) =  -567.322974170     a.u. after   15 cycles
 SCF Done:  E(RCAM-B3LYP) =  -567.322569970     a.u. after    7 cycles
 SCF Done:  E(RCAM-B3LYP) =  -567.324377665     a.u. after    6 cycles
 SCF Done:  E(RCAM-B3LYP) =  -567.325560443     a.u. after    6 cycles
 SCF Done:  E(RCAM-B3LYP) =  -567.325924627     a.u. after    4 cycles
 SCF Done:  E(RCAM-B3LYP) =  -567.326041170     a.u. after    4 cycles
 SCF Done:  E(RCAM-B3LYP) =  -567.326120611     a.u. after    4 cycles
 SCF Done:  E(RCAM-B3LYP) =  -567.326133560     a.u. after    3 cycles
 SCF Done:  E(RCAM-B3LYP) =  -567.326136635     a.u. after    3 cycles
 SCF Done:  E(RCAM-B3LYP) =  -567.326136899     a.u. after    2 cycles
 SCF Done:  E(RCAM-B3LYP) =  -567.326136944     a.u. after    2 cycles
 SCF Done:  E(RCAM-B3LYP) =  -567.326136950     a.u. after    2 cycles
 SCF Done:  E(RCAM-B3LYP) =  -567.326136956     a.u. after    2 cycles
 SCF Done:  E(RCAM-B3LYP) =  -567.326136958     a.u. after    2 cycles
 SCF Done:  E(RCAM-B3LYP) =  -567.326136959     a.u. after    2 cycles
 Optimization completed.
    -- Stationary point found.
 Normal termination of Gaussian 09 at Sat Nov 26 17:20:31 2022.

 ----------------------------------------------------------------------
 #N Geom=AllCheck Guess=TCheck SCRF=Check GenChk RCAM-B3LYP/ChkBas Freq
 ----------------------------------------------------------------------

 NA+OH CAM-B3LYP def2-TZVPD
 --------------------------
 Redundant internal coordinates taken from checkpoint file:
 /home/matheusmaximo/Gaussian/OH/1.chk
 Charge =  0 Multiplicity = 1

                         Standard orientation:
 ---------------------------------------------------------------------
 Center     Atomic      Atomic             Coordinates (Angstroms)
 Number     Number       Type             X           Y           Z
 ---------------------------------------------------------------------
      1          6           0        0.082289    0.976187   -0.002180
      2          6           0        0.934813   -0.119731   -0.001359
      3          6           0        0.448349   -1.410349   -0.000091
      4          6           0       -0.917279   -1.609476   -0.002346
      5          6           0       -1.802969   -0.535081   -0.005819
      6          6           0       -1.272325    0.766778   -0.003922
      7          1           0        0.499271    1.973640    0.001111
      8          1           0        1.137189   -2.240560    0.001940
      9          1           0       -1.313948   -2.616484   -0.006250
     10          7           0        2.371061    0.110218    0.001424
     11          8           0        3.104298   -0.858668    0.004973
     12          8           0        2.761975    1.262839    0.000349
     13          7           0       -3.159086   -0.697410   -0.046255
     14          1           0       -3.545455   -1.592794    0.191517
     15          1           0       -3.731828    0.105979    0.144583
     16          8           0       -2.192659    1.775610    0.002761
     17          1           0       -1.755248    2.632365    0.010548
 ---------------------------------------------------------------------

 SCF Done:  E(RCAM-B3LYP) =  -567.326136959     a.u. after    1 cycles

 The electronic state is 1-A.
 Alpha  occ. eigenvalues --  -19.25691 -19.22576 -19.22569 -14.62787 -14.41998
 Alpha  occ. eigenvalues --  -10.33061 -10.31942 -10.30247 -10.27563 -10.27145
 Alpha  occ. eigenvalues --  -10.26722  -1.31810  -1.17322  -1.13781  -1.03380
 Alpha  occ. eigenvalues --   -0.96905  -0.87823  -0.85450  -0.77957  -0.73913
 Alpha  occ. eigenvalues --   -0.67928  -0.64852  -0.63006  -0.61522  -0.61486
 Alpha  occ. eigenvalues --   -0.60676  -0.58053  -0.53954  -0.52847  -0.52439
 Alpha  occ. eigenvalues --   -0.50773  -0.47041  -0.45033  -0.44796  -0.41268
 Alpha  occ. eigenvalues --   -0.37970  -0.37657  -0.36199  -0.32400  -0.28166
 Alpha virt. eigenvalues --   -0.04073   0.00956   0.01749   0.02835   0.04187
 Alpha virt. eigenvalues --    0.05959   0.06139   0.06627   0.07270   0.07756
 Alpha virt. eigenvalues --    0.09294   0.09870   0.10844   0.11255   0.12523

 Mulliken atomic charges:
              1
     1  C   -0.266289
     2  C   -0.303464
     3  C   -0.406578
     4  C   -0.407207
     5  C    0.051639
     6  C    0.731284
     7  H    0.418386
     8  H    0.436552
     9  H    0.269957
    10  N    0.899848
    11  O   -0.587674
    12  O   -0.595937
    13  N   -0.410595
    14  H    0.194655
    15  H    0.226341
    16  O   -0.527973
    17  H    0.277055
 Sum of Mulliken atomic charges =   0.00000

 Dipole moment (field-independent basis, Debye):
    X=             -5.9862    Y=             -0.1852    Z=              0.6047  Tot=              6.0195
 Quadrupole moment (field-independent basis, Debye-Ang):
   XX=            -71.4421   YY=            -53.4932   ZZ=            -65.4083
   XY=              1.3495   XZ=             -2.5069   YZ=             -0.5245

  Exact polarizability: 154.914   4.057 110.234   0.361  -0.029  56.486
 Approx polarizability: 177.100   1.871 152.800   0.798  -0.050  75.128

                     1                      2                      3
                     A                      A                      A
 Frequencies --    65.3935               115.5777               214.7692
 Red. masses --    11.3826                 5.7579                 7.5235
 Frc consts  --     0.0287                 0.0453                 0.2045
 IR Inten    --     0.0157                 0.2854                 2.2665

                     4                      5                      6
                     A                      A                      A
 Frequencies --   217.5122               300.0641               319.9705
 Red. masses --     5.0040                 1.1815                 2.9294
 Frc consts  --     0.1395                 0.0627                 0.1767
 IR Inten    --     0.2006               146.6537                44.2131

                     7                      8                      9
                     A                      A                      A
 Frequencies --   335.2788               361.0351               372.2405
 Red. masses --     1.7325                 3.7197                 4.0609
 Frc consts  --     0.1147                 0.2857                 0.3315
 IR Inten    --    72.3805                94.1401                46.7883

                    10                     11                     12
                     A                      A                      A
 Frequencies --   433.4613               444.2847               469.9459
 Red. masses --     2.5045                 1.3936                 2.9195
 Frc consts  --     0.2773                 0.1621                 0.3799
 IR Inten    --    10.6967                31.3423                 3.2571

                    13                     14                     15
                     A                      A                      A
 Frequencies --   562.9592               586.2800               588.7092
 Red. masses --     7.2295                 4.4780                 4.6119
 Frc consts  --     1.3499                 0.9069                 0.9417
 IR Inten    --     1.4690                 1.5529                 3.3902

                    16                     17                     18
                     A                      A                      A
 Frequencies --   670.5145               757.8959               791.2386
 Red. masses --     7.2719                 3.1944                 4.5522
 Frc consts  --     1.9263                 1.0811                 1.6792
 IR Inten    --     7.9097                 3.4334                33.8635

                    19                     20                     21
                     A                      A                      A
 Frequencies --   816.6697               852.4217               859.9637
 Red. masses --     4.6579                 7.6634                 1.8362
 Frc consts  --     1.8303                 3.2808                 0.8001
 IR Inten    --    11.4259                22.7916                12.4703

                    22                     23                     24
                     A                      A                      A
 Frequencies --   928.3249               978.5035               994.8629
 Red. masses --     1.5781                 4.5596                 1.3671
 Frc consts  --     0.8013                 2.5722                 0.7972
 IR Inten    --    20.7944                19.8103                 0.1605

                    25                     26                     27
                     A                      A                      A
 Frequencies --  1072.0880              1124.2380              1159.4952
 Red. masses --     1.5154                 1.8766                 1.4038
 Frc consts  --     1.0262                 1.3974                 1.1120
 IR Inten    --     2.7018                76.4342               146.6907

                    28                     29                     30
                     A                      A                      A
 Frequencies --  1188.9699              1289.2767              1339.7129
 Red. masses --     1.3067                 2.6055                 1.7343
 Frc consts  --     1.0884                 2.5517                 1.8340
 IR Inten    --   118.2488                43.5808                37.5316

                    31                     32                     33
                     A                      A                      A
 Frequencies --  1356.6117              1403.5043              1422.4676
 Red. masses --     2.7675                 5.4335                 9.6557
 Frc consts  --     3.0009                 6.3060                11.5112
 IR Inten    --   175.7229               155.0930               421.0814

                    34                     35                     36
                     A                      A                      A
 Frequencies --  1504.8608              1579.9020              1625.7492
 Red. masses --     4.4387                 3.2908                11.7113
 Frc consts  --     5.9224                 4.8397                18.2373
 IR Inten    --    21.6821                92.6261               356.6519

                    37                     38                     39
                     A                      A                      A
 Frequencies --  1645.1116              1685.0494              1691.3351
 Red. masses --     1.3715                 4.4349                 7.7348
 Frc consts  --     2.1870                 7.4193                13.0365
 IR Inten    --    52.3455               176.2623                67.9914

                    40                     41                     42
                     A                      A                      A
 Frequencies --  3199.7689              3223.8508              3252.0714
 Red. masses --     1.0907                 1.0918                 1.0932
 Frc consts  --     6.5792                 6.6856                 6.8120
 IR Inten    --     7.4986                 5.7610                 3.1704

                    43                     44                     45
                     A                      A                      A
 Frequencies --  3616.6297              3727.8862              3850.9976
 Red. masses --     1.0456                 1.1032                 1.0663
 Frc consts  --     8.0578                 9.0329                 9.3168
 IR Inten    --    98.5603                49.8444                93.7967

 - Thermochemistry -
 -------------------
 Temperature   298.150 Kelvin.  Pressure   1.00000 Atm.
 Atom     1 has atomic number  6 and mass  12.00000

 Molecular mass:   154.03784 amu.
 Principal axes and moments of inertia in atomic units:
                           1         2         3
     Eigenvalues --   704.405842448.896953152.68769
           X            0.99998   0.00524  -0.00181
           Y           -0.00524   0.99999  -0.00129
           Z            0.00180   0.00130   1.00000
 This molecule is an asymmetric top.
 Rotational symmetry number  1.
 Warning -- assumption of classical behavior for rotation
           may cause significant error
 Rotational temperatures (Kelvin)      0.12296     0.03537     0.02747
 Rotational constants (GHZ):           2.56208     0.73696     0.57245
 Zero-point vibrational energy     328957.8 (Joules/Mol)
                                   78.62281 (Kcal/Mol)
 Warning -- explicit consideration of  15 degrees of freedom as
           vibrations may cause significant error
 Vibrational temperatures:     94.09   166.29   309.00   312.95   431.72
          (Kelvin)            460.37   482.39   519.45   535.57   623.65
                              639.23   676.15   809.97   843.53   847.02
                              964.72  1090.44  1138.41  1175.00  1226.44
                             1237.29  1335.65  1407.85  1431.38  1542.49
                             1617.53  1668.25  1710.66  1854.98  1927.55
                             1951.86  2019.33  2046.61  2165.16  2273.12
                             2339.09  2366.95  2424.41  2433.45  4603.75
                             4638.40  4679.00  5203.52  5363.59  5540.72

 Zero-point correction=                           0.125293 (Hartree/Particle)
 Thermal correction to Energy=                    0.134671
 Thermal correction to Enthalpy=                  0.135615
 Thermal correction to Gibbs Free Energy=         0.090689
 Sum of electronic and zero-point Energies=           -567.200844
 Sum of electronic and thermal Energies=              -567.191466
 Sum of electronic and thermal Enthalpies=            -567.190522
 Sum of electronic and thermal Free Energies=         -567.235448

                     E (Thermal)             CV                S
                      KCal/Mol        Cal/Mol-Kelvin    Cal/Mol-Kelvin
 Total                   84.507             36.001             94.554
 Electronic               0.000              0.000              0.000
 Translational            0.889              2.981             41.006
 Rotational               0.889              2.981             30.076
 Vibrational             82.730             30.039             23.472
 Vibration     1          0.597              1.971              4.287
 Vibration     2          0.608              1.936              3.173
 Vibration     3          0.645              1.818              2.003
 Vibration     4          0.646              1.814              1.980
 Vibration     5          0.693              1.674              1.417
 Vibration     6          0.706              1.635              1.310
 Vibration     7          0.716              1.605              1.235
 Vibration     8          0.735              1.553              1.118
 Vibration     9          0.744              1.529              1.071
 Vibration    10          0.794              1.397              0.847
 Vibration    11          0.804              1.374              0.813
 Vibration    12          0.827              1.317              0.738
 Vibration    13          0.919              1.111              0.518
 Vibration    14          0.943              1.061              0.474
 Vibration    15          0.946              1.056              0.469

 Optimization completed.
    -- Stationary point found.
 Normal termination of Gaussian 09 at Sat Nov 26 21:55:07 2022.
