 Gaussian 09, Revision A.02,
 Gaussian 09:  EM64L-G09RevA.02 11-Jun-2009

 ---------------------------------------------------
 # opt=tight freq cam-b3lyp/gen scf=qc int=ultrafine
 ---------------------------------------------------

 --------------------------
 NA+Cl CAM-B3LYP def2-TZVPD
 --------------------------
 Symbolic Z-matrix:
 Charge =  0 Multiplicity = 1

 SCF Done:  E(RCAM-B3LYP) =  -951.691858974     a.u. after    9 cycles
 SCF Done:  E(RCAM-B3LYP) =  -951.714612070     a.u. after    6 cycles
 SCF Done:  E(RCAM-B3LYP) =  -951.717315315     a.u. after    5 cycles
 SCF Done:  E(RCAM-B3LYP) =  -951.717716044     a.u. after    4 cycles
 SCF Done:  E(RCAM-B3LYP) =  -951.714802601     a.u. after    6 cycles
 SCF Done:  E(RCAM-B3LYP) =  -951.717745891     a.u. after    5 cycles
 SCF Done:  E(RCAM-B3LYP) =  -951.717768911     a.u. after    3 cycles
 SCF Done:  E(RCAM-B3LYP) =  -951.717771757     a.u. after    2 cycles
 SCF Done:  E(RCAM-B3LYP) =  -951.717773930     a.u. after    3 cycles
 SCF Done:  E(RCAM-B3LYP) =  -951.717775205     a.u. after    2 cycles
 SCF Done:  E(RCAM-B3LYP) =  -951.717775986     a.u. after    2 cycles
 SCF Done:  E(RCAM-B3LYP) =  -951.717776387     a.u. after    2 cycles
 SCF Done:  E(RCAM-B3LYP) =  -951.717776427     a.u. after    2 cycles
 SCF Done:  E(RCAM-B3LYP) =  -951.717776428     a.u. after    2 cycles
 Optimization completed.
    -- Stationary point found.
 Normal termination of Gaussian 09 at Fri Feb 10 01:24:13 2023.

 ----------------------------------------------------------------------
 #N Geom=AllCheck Guess=TCheck SCRF=Check GenChk RCAM-B3LYP/ChkBas Freq
 ----------------------------------------------------------------------

 NA+Cl CAM-B3LYP def2-TZVPD
 --------------------------
 Redundant internal coordinates taken from checkpoint file:
 /home/matheusmaximo/Gaussian/substituent/cl/cl_s0.chk
 Charge =  0 Multiplicity = 1

                         Standard orientation:
 ---------------------------------------------------------------------
 Center     Atomic      Atomic             Coordinates (Angstroms)
 Number     Number       Type             X           Y           Z
 ---------------------------------------------------------------------
      1          6           0       -0.191883   -0.805050   -0.001759
      2          6           0       -1.207747    0.131946   -0.000979
      3          6           0       -0.933043    1.488689   -0.000078
      4          6           0        0.374556    1.908771   -0.001497
      5          6           0        1.434686    0.992960   -0.004010
      6          6           0        1.112189   -0.372742   -0.003153
      7          1           0       -0.428011   -1.857858    0.000172
      8          1           0       -1.748333    2.195715    0.001562
      9          1           0        0.600236    2.967211   -0.004356
     10          7           0       -2.591057   -0.323308    0.001128
     11          8           0       -3.464246    0.521644    0.003960
     12          8           0       -2.795060   -1.521050    0.000106
     13          7           0        2.725927    1.414939   -0.034264
     14          1           0        2.932043    2.382305    0.133068
     15          1           0        3.465086    0.751234    0.112901
     16         17           0        2.398635   -1.538366    0.001467
 ---------------------------------------------------------------------

 SCF Done:  E(RCAM-B3LYP) =  -951.717776428     a.u. after    1 cycles

 The electronic state is 1-A.
 Alpha  occ. eigenvalues -- -101.62178 -19.23163 -19.23159 -14.63403 -14.43212
 Alpha  occ. eigenvalues --  -10.33705 -10.32927 -10.30983 -10.28884 -10.28438
 Alpha  occ. eigenvalues --  -10.27755  -9.55498  -7.31762  -7.30886  -7.30873
 Alpha  occ. eigenvalues --   -1.32456  -1.14452  -1.05695  -0.98993  -0.95993
 Alpha  occ. eigenvalues --   -0.88503  -0.85001  -0.78458  -0.73039  -0.67955
 Alpha  occ. eigenvalues --   -0.64613  -0.63683  -0.62287  -0.62124  -0.58845
 Alpha  occ. eigenvalues --   -0.54895  -0.54361  -0.52734  -0.51723  -0.50757
 Alpha  occ. eigenvalues --   -0.45147  -0.43262  -0.42278  -0.40794  -0.38425
 Alpha  occ. eigenvalues --   -0.38204  -0.36793  -0.33720  -0.29642
 Alpha virt. eigenvalues --   -0.04600  -0.00037   0.01386   0.02550   0.03856
 Alpha virt. eigenvalues --    0.04633   0.05372   0.05981   0.06209   0.06691
 Alpha virt. eigenvalues --    0.07192   0.09157   0.10142   0.10430   0.10815

 Mulliken atomic charges:
              1
     1  C   -0.369276
     2  C   -0.329467
     3  C   -0.461044
     4  C   -0.549344
     5  C    0.588901
     6  C    0.502406
     7  H    0.497292
     8  H    0.438807
     9  H    0.235941
    10  N    0.908414
    11  O   -0.585620
    12  O   -0.588921
    13  N   -0.399181
    14  H    0.188381
    15  H    0.177573
    16  Cl  -0.254861
 Sum of Mulliken atomic charges =   0.00000

 Dipole moment (field-independent basis, Debye):
    X=              5.5168    Y=              3.2229    Z=              0.4218  Tot=              6.4032
 Quadrupole moment (field-independent basis, Debye-Ang):
   XX=            -78.2111   YY=            -63.9552   ZZ=            -71.6603
   XY=              2.6142   XZ=              1.5812   YZ=              0.8176

  Exact polarizability: 162.406   3.146 122.142  -0.243  -0.009  62.081
 Approx polarizability: 187.412  -0.099 166.239  -0.559  -0.051  84.448

                     1                      2                      3
                     A                      A                      A
 Frequencies --    60.3243               113.8139               179.0076
 Red. masses --    14.7738                 5.6777                 5.5738
 Frc consts  --     0.0317                 0.0433                 0.1052
 IR Inten    --     0.1638                 0.1226                 1.0190

                     4                      5                      6
                     A                      A                      A
 Frequencies --   184.4795               255.9588               280.8564
 Red. masses --    14.1133                 1.2178                 4.8734
 Frc consts  --     0.2830                 0.0470                 0.2265
 IR Inten    --     1.6789               237.8009                 8.6104

                     7                      8                      9
                     A                      A                      A
 Frequencies --   324.2462               364.9946               376.5803
 Red. masses --     7.4235                10.4964                 8.2460
 Frc consts  --     0.4598                 0.8239                 0.6890
 IR Inten    --     1.1356                 1.6363                 0.8812

                    10                     11                     12
                     A                      A                      A
 Frequencies --   442.3231               464.1767               492.3372
 Red. masses --     1.1375                 2.5459                 4.2959
 Frc consts  --     0.1311                 0.3232                 0.6135
 IR Inten    --     4.5205                 4.9283                 1.1851

                    13                     14                     15
                     A                      A                      A
 Frequencies --   561.3103               562.6199               664.0395
 Red. masses --     3.9654                 5.2430                 7.4976
 Frc consts  --     0.7361                 0.9778                 1.9479
 IR Inten    --     2.1364                 2.8175                 7.7554

                    16                     17                     18
                     A                      A                      A
 Frequencies --   743.2781               747.0973               792.7428
 Red. masses --     3.5350                 7.7292                 5.2515
 Frc consts  --     1.1506                 2.5418                 1.9444
 IR Inten    --     2.4539                43.5378                28.8605

                    19                     20                     21
                     A                      A                      A
 Frequencies --   851.6847               860.0245               933.7713
 Red. masses --     5.9512                 1.7670                 7.9194
 Frc consts  --     2.5434                 0.7700                 4.0684
 IR Inten    --     5.3612                16.9878                23.5910

                    22                     23                     24
                     A                      A                      A
 Frequencies --   964.7835              1008.6689              1058.8632
 Red. masses --     1.4786                 1.3536                 1.6969
 Frc consts  --     0.8109                 0.8114                 1.1209
 IR Inten    --    11.0254                 0.1432                 0.2178

                    25                     26                     27
                     A                      A                      A
 Frequencies --  1088.1951              1163.2737              1182.2353
 Red. masses --     1.8325                 2.3590                 1.4786
 Frc consts  --     1.2785                 1.8808                 1.2176
 IR Inten    --    16.0497               158.8996                19.1779

                    28                     29                     30
                     A                      A                      A
 Frequencies --  1295.6856              1362.4371              1366.7762
 Red. masses --     1.5428                 3.1259                 4.3844
 Frc consts  --     1.5260                 3.4187                 4.8257
 IR Inten    --     2.7358                46.6954                87.4351

                    31                     32                     33
                     A                      A                      A
 Frequencies --  1424.2360              1477.1955              1554.1022
 Red. masses --    12.0858                 4.5769                 2.9105
 Frc consts  --    14.4441                 5.8844                 4.1416
 IR Inten    --   530.8107                 0.7055                68.1361

                    34                     35                     36
                     A                      A                      A
 Frequencies --  1619.9603              1646.3695              1674.4880
 Red. masses --    10.6557                 1.5332                 8.3265
 Frc consts  --    16.4756                 2.4485                13.7555
 IR Inten    --   212.8399                28.0752               138.9982

                    37                     38                     39
                     A                      A                      A
 Frequencies --  1679.3176              3200.5605              3249.5827
 Red. masses --     3.5883                 1.0907                 1.0934
 Frc consts  --     5.9622                 6.5825                 6.8028
 IR Inten    --   286.6957                 5.7232                 4.0552

                    40                     41                     42
                     A                      A                      A
 Frequencies --  3252.4494              3621.4476              3736.0298
 Red. masses --     1.0925                 1.0456                 1.1039
 Frc consts  --     6.8089                 8.0795                 9.0779
 IR Inten    --     8.9738               103.6853                55.7293

 - Thermochemistry -
 -------------------
 Temperature   298.150 Kelvin.  Pressure   1.00000 Atm.
 Atom     1 has atomic number  6 and mass  12.00000

 Molecular mass:   172.00396 amu.
 Principal axes and moments of inertia in atomic units:
                           1         2         3
     Eigenvalues --   958.245382894.191983852.10753
           X            0.99976   0.02204   0.00097
           Y           -0.02204   0.99976   0.00154
           Z           -0.00094  -0.00156   1.00000
 This molecule is an asymmetric top.
 Rotational symmetry number  1.
 Warning -- assumption of classical behavior for rotation
           may cause significant error
 Rotational temperatures (Kelvin)      0.09039     0.02993     0.02248
 Rotational constants (GHZ):           1.88338     0.62357     0.46851
 Zero-point vibrational energy     292381.2 (Joules/Mol)
                                   69.88079 (Kcal/Mol)
 Warning -- explicit consideration of  14 degrees of freedom as
           vibrations may cause significant error
 Vibrational temperatures:     86.79   163.75   257.55   265.42   368.27
          (Kelvin)            404.09   466.52   525.15   541.81   636.40
                              667.85   708.36   807.60   809.48   955.40
                             1069.41  1074.90  1140.58  1225.38  1237.38
                             1343.49  1388.11  1451.25  1523.47  1565.67
                             1673.69  1700.97  1864.20  1960.24  1966.48
                             2049.16  2125.35  2236.00  2330.76  2368.76
                             2409.21  2416.16  4604.89  4675.42  4679.54
                             5210.45  5375.31

 Zero-point correction=                           0.111362 (Hartree/Particle)
 Thermal correction to Energy=                    0.120805
 Thermal correction to Enthalpy=                  0.121749
 Thermal correction to Gibbs Free Energy=         0.075947
 Sum of electronic and zero-point Energies=           -951.606414
 Sum of electronic and thermal Energies=              -951.596971
 Sum of electronic and thermal Enthalpies=            -951.596027
 Sum of electronic and thermal Free Energies=         -951.641830

                     E (Thermal)             CV                S
                      KCal/Mol        Cal/Mol-Kelvin    Cal/Mol-Kelvin
 Total                   75.806             35.233             96.399
 Electronic               0.000              0.000              0.000
 Translational            0.889              2.981             41.335
 Rotational               0.889              2.981             30.747
 Vibrational             74.029             29.272             24.317
 Vibration     1          0.597              1.973              4.447
 Vibration     2          0.607              1.938              3.203
 Vibration     3          0.629              1.868              2.339
 Vibration     4          0.631              1.861              2.283
 Vibration     5          0.666              1.753              1.689
 Vibration     6          0.681              1.709              1.528
 Vibration     7          0.709              1.627              1.289
 Vibration     8          0.738              1.544              1.101
 Vibration     9          0.747              1.520              1.053
 Vibration    10          0.802              1.378              0.819
 Vibration    11          0.822              1.330              0.754
 Vibration    12          0.848              1.267              0.678
 Vibration    13          0.917              1.115              0.521
 Vibration    14          0.918              1.112              0.519

 Optimization completed.
    -- Stationary point found.
 Normal termination of Gaussian 09 at Fri Feb 10 07:39:00 2023.
