 Gaussian 09, Revision A.02,
 Gaussian 09:  EM64L-G09RevA.02 11-Jun-2009

 ----------------------------------------------------
 # td=(nstates=15) cam-b3lyp/gen scf=qc int=ultrafine
 ----------------------------------------------------

 ----------------------------------------
 NA+cf3 CAM-B3LYP def2-TZVPD Single point
 ----------------------------------------
 Symbolic Z-matrix:
 Charge =  0 Multiplicity = 1

                         Standard orientation:
 ---------------------------------------------------------------------
 Center     Atomic      Atomic             Coordinates (Angstroms)
 Number     Number       Type             X           Y           Z
 ---------------------------------------------------------------------
      1          6           0        0.508456   -0.617657   -0.007648
      2          6           0        1.664135    0.133365   -0.000801
      3          6           0        1.615085    1.518328    0.007380
      4          6           0        0.397638    2.148268    0.006014
      5          6           0       -0.800865    1.418935   -0.003125
      6          6           0       -0.718977    0.012102   -0.007582
      7          1           0        0.575844   -1.694270   -0.012541
      8          1           0        2.536133    2.081388    0.012722
      9          1           0        0.350764    3.229411    0.012025
     10          7           0        2.954613   -0.541474   -0.002367
     11          8           0        3.952837    0.151255    0.005056
     12          8           0        2.960562   -1.755859   -0.011086
     13          7           0       -1.986713    2.079090    0.016680
     14          1           0       -1.992171    3.076582   -0.090568
     15          1           0       -2.853958    1.601449   -0.145284
     16          6           0       -1.968457   -0.811695    0.004795
     17          9           0       -2.696692   -0.607130    1.120113
     18          9           0       -2.786374   -0.499530   -1.027485
     19          9           0       -1.725957   -2.118997   -0.072906
 ---------------------------------------------------------------------

 SCF Done:  E(RCAM-B3LYP) =  -829.209212286     a.u. after    9 cycles

 Excitation energies and oscillator strengths:

 Excited State   1:      Singlet-A      4.1082 eV  301.80 nm  f=0.0000  <S**2>=0.000
      50 -> 53         0.66861
      50 -> 56         0.18246
 This state for optimization and/or second-order correction.
 Copying the excited state density for this state as the 1-particle RhoCI density.

 Excited State   2:      Singlet-A      4.5088 eV  274.98 nm  f=0.3730  <S**2>=0.000
      52 -> 53         0.68944

 Excited State   3:      Singlet-A      4.6458 eV  266.88 nm  f=0.0005  <S**2>=0.000
      48 -> 53         0.67011
      48 -> 56         0.17646

 Excited State   4:      Singlet-A      4.7934 eV  258.66 nm  f=0.0227  <S**2>=0.000
      51 -> 53         0.29175
      52 -> 54         0.62688

 Excited State   5:      Singlet-A      5.7509 eV  215.59 nm  f=0.0702  <S**2>=0.000
      51 -> 53         0.63559
      52 -> 54        -0.29125

 Excited State   6:      Singlet-A      5.9458 eV  208.52 nm  f=0.0011  <S**2>=0.000
      52 -> 55         0.68104

 Excited State   7:      Singlet-A      6.2855 eV  197.25 nm  f=0.0072  <S**2>=0.000
      47 -> 53        -0.13128
      51 -> 54         0.27705
      52 -> 56         0.55657
      52 -> 57        -0.24428
      52 -> 58         0.12985

 Excited State   8:      Singlet-A      6.4627 eV  191.84 nm  f=0.1734  <S**2>=0.000
      49 -> 53         0.67898

 Excited State   9:      Singlet-A      6.7825 eV  182.80 nm  f=0.0179  <S**2>=0.000
      51 -> 54         0.12017
      52 -> 56        -0.29812
      52 -> 57        -0.29214
      52 -> 58         0.49099
      52 -> 59        -0.14582
      52 -> 61         0.15559

 Excited State  10:      Singlet-A      6.8336 eV  181.43 nm  f=0.0033  <S**2>=0.000
      51 -> 55         0.10111
      52 -> 56         0.16423
      52 -> 57         0.50053
      52 -> 58         0.33651
      52 -> 59        -0.26184

 Excited State  11:      Singlet-A      6.8929 eV  179.87 nm  f=0.5149  <S**2>=0.000
      51 -> 54         0.61699
      52 -> 56        -0.17352
      52 -> 57         0.19509
      52 -> 58        -0.12869

 Excited State  12:      Singlet-A      7.1210 eV  174.11 nm  f=0.0001  <S**2>=0.000
      50 -> 54         0.70078

 Excited State  13:      Singlet-A      7.4130 eV  167.25 nm  f=0.0000  <S**2>=0.000
      46 -> 53         0.14415
      48 -> 54         0.67961

 Excited State  14:      Singlet-A      7.5603 eV  163.99 nm  f=0.0218  <S**2>=0.000
      46 -> 53         0.10485
      47 -> 53         0.52657
      49 -> 54        -0.34666
      51 -> 56         0.14853
      52 -> 56         0.13268

 Excited State  15:      Singlet-A      7.5764 eV  163.65 nm  f=0.0011  <S**2>=0.000
      52 -> 58         0.21394
      52 -> 59         0.45497
      52 -> 60        -0.33967
      52 -> 61        -0.18144
      52 -> 63        -0.14612

 The electronic state is 1-A.
 Alpha  occ. eigenvalues --  -24.81056 -24.80776 -24.80519 -19.23540 -19.23537
 Alpha  occ. eigenvalues --  -14.63789 -14.43905 -10.52262 -10.34715 -10.31361
 Alpha  occ. eigenvalues --  -10.29836 -10.29684 -10.29303 -10.28243  -1.42179
 Alpha  occ. eigenvalues --   -1.33208  -1.32853  -1.32521  -1.14859  -1.05967
 Alpha  occ. eigenvalues --   -0.98761  -0.91116  -0.88706  -0.81301  -0.78874
 Alpha  occ. eigenvalues --   -0.74707  -0.71674  -0.69007  -0.68859  -0.66676
 Alpha  occ. eigenvalues --   -0.63907  -0.62859  -0.62520  -0.62130  -0.59322
 Alpha  occ. eigenvalues --   -0.57342  -0.56895  -0.54717  -0.54342  -0.53258
 Alpha  occ. eigenvalues --   -0.52330  -0.51355  -0.50705  -0.50104  -0.49590
 Alpha  occ. eigenvalues --   -0.45189  -0.42915  -0.38893  -0.38616  -0.37182
 Alpha  occ. eigenvalues --   -0.35989  -0.30608
 Alpha virt. eigenvalues --   -0.05001  -0.01167   0.01352   0.03374   0.03610
 Alpha virt. eigenvalues --    0.03774   0.06160   0.06380   0.06767   0.07185
 Alpha virt. eigenvalues --    0.09419   0.09634   0.09772   0.10468   0.10874

 Mulliken atomic charges:
              1
     1  C   -0.219268
     2  C   -0.367757
     3  C   -0.356746
     4  C   -0.535832
     5  C    0.565536
     6  C   -0.234952
     7  H    0.571502
     8  H    0.462441
     9  H    0.274790
    10  N    0.906378
    11  O   -0.590354
    12  O   -0.585970
    13  N   -0.342622
    14  H    0.178507
    15  H    0.171882
    16  C    0.999728
    17  F   -0.294303
    18  F   -0.308705
    19  F   -0.294257
 Sum of Mulliken atomic charges =   0.00000

 Dipole moment (field-independent basis, Debye):
    X=             -3.9564    Y=              4.7828    Z=             -0.3606  Tot=              6.2176
 Quadrupole moment (field-independent basis, Debye-Ang):
   XX=            -93.8982   YY=            -69.9845   ZZ=            -80.2771
   XY=             -1.0045   XZ=              1.1051   YZ=             -0.9058

 Normal termination of Gaussian 09 at Mon Mar 13 19:33:16 2023.
