 Gaussian 09, Revision A.02,
 Gaussian 09:  EM64L-G09RevA.02 11-Jun-2009

 ---------------------------------------------------
 # opt=tight freq cam-b3lyp/gen scf=qc int=ultrafine
 ---------------------------------------------------

 ----------------------------
 NA+COOH CAM-B3LYP def2-TZVPD
 ----------------------------
 Symbolic Z-matrix:
 Charge =  0 Multiplicity = 1

 SCF Done:  E(RCAM-B3LYP) =  -680.649930737     a.u. after    9 cycles
 SCF Done:  E(RCAM-B3LYP) =  -680.667198072     a.u. after    7 cycles
 SCF Done:  E(RCAM-B3LYP) =  -680.675891308     a.u. after    6 cycles
 SCF Done:  E(RCAM-B3LYP) =  -680.685443245     a.u. after   24 cycles
 SCF Done:  E(RCAM-B3LYP) =  -680.684860935     a.u. after    6 cycles
 SCF Done:  E(RCAM-B3LYP) =  -680.685925896     a.u. after    6 cycles
 SCF Done:  E(RCAM-B3LYP) =  -680.685938749     a.u. after    7 cycles
 SCF Done:  E(RCAM-B3LYP) =  -680.686332732     a.u. after    6 cycles
 SCF Done:  E(RCAM-B3LYP) =  -680.686986368     a.u. after    5 cycles
 SCF Done:  E(RCAM-B3LYP) =  -680.687005797     a.u. after    5 cycles
 SCF Done:  E(RCAM-B3LYP) =  -680.687103826     a.u. after    5 cycles
 SCF Done:  E(RCAM-B3LYP) =  -680.687122666     a.u. after    3 cycles
 SCF Done:  E(RCAM-B3LYP) =  -680.687148882     a.u. after    3 cycles
 SCF Done:  E(RCAM-B3LYP) =  -680.687158371     a.u. after    4 cycles
 SCF Done:  E(RCAM-B3LYP) =  -680.687159530     a.u. after    3 cycles
 SCF Done:  E(RCAM-B3LYP) =  -680.687159613     a.u. after   35 cycles
 SCF Done:  E(RCAM-B3LYP) =  -680.687159618     a.u. after   35 cycles
 SCF Done:  E(RCAM-B3LYP) =  -680.687159621     a.u. after    2 cycles
 Optimization completed.
    -- Stationary point found.
 Normal termination of Gaussian 09 at Sun Feb 12 03:40:21 2023.

 ----------------------------------------------------------------------
 #N Geom=AllCheck Guess=TCheck SCRF=Check GenChk RCAM-B3LYP/ChkBas Freq
 ----------------------------------------------------------------------

 NA+COOH CAM-B3LYP def2-TZVPD
 ----------------------------
 Redundant internal coordinates taken from checkpoint file:
 /home/matheusmaximo/Gaussian/substituent/cooh/cooh_s0.chk
 Charge =  0 Multiplicity = 1

                         Standard orientation:
 ---------------------------------------------------------------------
 Center     Atomic      Atomic             Coordinates (Angstroms)
 Number     Number       Type             X           Y           Z
 ---------------------------------------------------------------------
      1          6           0       -0.319104   -0.682286   -0.000005
      2          6           0       -1.419483    0.135112    0.000005
      3          6           0       -1.277937    1.519427    0.000025
      4          6           0       -0.025340    2.062417    0.000022
      5          6           0        1.133321    1.257950   -0.000003
      6          6           0        0.965101   -0.147536   -0.000004
      7          1           0       -0.437479   -1.755195   -0.000005
      8          1           0       -2.159113    2.143156    0.000041
      9          1           0        0.093649    3.138213    0.000041
     10          7           0       -2.753505   -0.448809   -0.000004
     11          8           0       -3.700660    0.314114   -0.000038
     12          8           0       -2.846769   -1.658789    0.000021
     13          7           0        2.336075    1.871103   -0.000025
     14          1           0        2.381715    2.872581    0.000006
     15          1           0        3.186187    1.338444   -0.000011
     16          6           0        2.055865   -1.143136   -0.000001
     17          8           0        1.898862   -2.332681    0.000002
     18          8           0        3.306505   -0.615048    0.000000
     19          1           0        3.919011   -1.365716    0.000012
 ---------------------------------------------------------------------

 SCF Done:  E(RCAM-B3LYP) =  -680.687159621     a.u. after    1 cycles

 The electronic state is 1-A.
 Alpha  occ. eigenvalues --  -19.27565 -19.22989 -19.22982 -19.20567 -14.63224
 Alpha  occ. eigenvalues --  -14.43198 -10.40587 -10.34374 -10.30693 -10.28912
 Alpha  occ. eigenvalues --  -10.28903 -10.28775 -10.27708  -1.32289  -1.22103
 Alpha  occ. eigenvalues --   -1.14288  -1.12404  -1.05331  -0.97963  -0.89493
 Alpha  occ. eigenvalues --   -0.87942  -0.78620  -0.77331  -0.71414  -0.68736
 Alpha  occ. eigenvalues --   -0.65321  -0.64375  -0.62276  -0.61968  -0.59018
 Alpha  occ. eigenvalues --   -0.58170  -0.57245  -0.55787  -0.54271  -0.53197
 Alpha  occ. eigenvalues --   -0.50818  -0.49646  -0.49630  -0.44915  -0.43015
 Alpha  occ. eigenvalues --   -0.41529  -0.38364  -0.38053  -0.37525  -0.36580
 Alpha  occ. eigenvalues --   -0.35068  -0.29912
 Alpha virt. eigenvalues --   -0.04333  -0.02943   0.00740   0.02425   0.03479
 Alpha virt. eigenvalues --    0.03986   0.05091   0.06330   0.06783   0.06993
 Alpha virt. eigenvalues --    0.08700   0.08986   0.09117   0.10205   0.10311

 Mulliken atomic charges:
              1
     1  C   -0.133347
     2  C   -0.335717
     3  C   -0.369729
     4  C   -0.533177
     5  C    0.613643
     6  C   -0.166428
     7  H    0.558759
     8  H    0.453717
     9  H    0.275114
    10  N    0.913326
    11  O   -0.597021
    12  O   -0.581449
    13  N   -0.301822
    14  H    0.107404
    15  H    0.247324
    16  C    0.467151
    17  O   -0.510504
    18  O   -0.459812
    19  H    0.352567
 Sum of Mulliken atomic charges =   0.00000

 Dipole moment (field-independent basis, Debye):
    X=              6.3520    Y=              4.8800    Z=              0.0001  Tot=              8.0101
 Quadrupole moment (field-independent basis, Debye-Ang):
   XX=            -76.6515   YY=            -72.1302   ZZ=            -75.0456
   XY=             -0.1793   XZ=              0.0000   YZ=              0.0003

  Exact polarizability: 167.254   5.337 134.823   0.000   0.000  62.464
 Approx polarizability: 189.312   4.615 180.716   0.000   0.000  84.893

                     1                      2                      3
                     A                      A                      A
 Frequencies --    50.3588                56.4625               106.3619
 Red. masses --    11.3919                13.3480                 6.8975
 Frc consts  --     0.0170                 0.0251                 0.0460
 IR Inten    --     3.6788                 0.0971                 3.9201

                     4                      5                      6
                     A                      A                      A
 Frequencies --   152.0113               165.0671               238.6679
 Red. masses --     4.5162                10.9623                 1.1577
 Frc consts  --     0.0615                 0.1760                 0.0389
 IR Inten    --     4.9425                 0.6198               155.6516

                     7                      8                      9
                     A                      A                      A
 Frequencies --   294.3702               307.7200               353.7086
 Red. masses --     6.8780                 6.3366                 9.0064
 Frc consts  --     0.3512                 0.3535                 0.6639
 IR Inten    --     0.4123                 4.5943                 1.6598

                    10                     11                     12
                     A                      A                      A
 Frequencies --   371.0030               402.8606               449.6619
 Red. masses --     7.8899                 4.8092                 3.1085
 Frc consts  --     0.6399                 0.4599                 0.3703
 IR Inten    --     1.1788                 5.6546                 4.1223

                    13                     14                     15
                     A                      A                      A
 Frequencies --   521.2024               532.8007               556.2272
 Red. masses --     8.0996                 2.2157                 1.1072
 Frc consts  --     1.2964                 0.3706                 0.2018
 IR Inten    --     4.3878                 3.4793                22.3095

                    16                     17                     18
                     A                      A                      A
 Frequencies --   582.0969               599.9501               661.0430
 Red. masses --     4.3248                 1.3378                 4.7299
 Frc consts  --     0.8634                 0.2837                 1.2177
 IR Inten    --     2.0262                68.4175                53.1220

                    19                     20                     21
                     A                      A                      A
 Frequencies --   671.2962               729.6836               783.1994
 Red. masses --     6.2903                 3.7658                 5.4851
 Frc consts  --     1.6701                 1.1814                 1.9823
 IR Inten    --    61.2948                35.3273                 7.4633

                    22                     23                     24
                     A                      A                      A
 Frequencies --   795.7870               819.4548               857.3599
 Red. masses --     6.0931                 3.9768                 6.9886
 Frc consts  --     2.2734                 1.5734                 3.0267
 IR Inten    --    19.3759                13.1890                 3.8770

                    25                     26                     27
                     A                      A                      A
 Frequencies --   867.3912               943.0175              1009.9530
 Red. masses --     2.0198                 6.8660                 1.4940
 Frc consts  --     0.8953                 3.5974                 0.8979
 IR Inten    --    25.9538                 9.7897                 5.0973

                    28                     29                     30
                     A                      A                      A
 Frequencies --  1023.4106              1063.2036              1111.6223
 Red. masses --     1.3384                 1.6485                 1.8117
 Frc consts  --     0.8259                 1.0979                 1.3190
 IR Inten    --     0.0656                 2.2728                 5.5559

                    31                     32                     33
                     A                      A                      A
 Frequencies --  1147.1944              1190.4932              1210.5605
 Red. masses --     3.2070                 1.2849                 2.5359
 Frc consts  --     2.4867                 1.0730                 2.1895
 IR Inten    --   384.8144                67.4758                31.6285

                    34                     35                     36
                     A                      A                      A
 Frequencies --  1299.8920              1322.8703              1373.8102
 Red. masses --     1.8651                 2.1488                 2.5942
 Frc consts  --     1.8568                 2.2156                 2.8847
 IR Inten    --    29.7448                37.8409                59.3239

                    37                     38                     39
                     A                      A                      A
 Frequencies --  1400.4935              1426.4587              1503.7713
 Red. masses --     5.4326                11.7376                 4.9614
 Frc consts  --     6.2779                14.0717                 6.6103
 IR Inten    --    48.6761               547.7141                84.6722

                    40                     41                     42
                     A                      A                      A
 Frequencies --  1548.6676              1616.8216              1649.8144
 Red. masses --     2.8035                 8.2303                 1.8404
 Frc consts  --     3.9615                12.6762                 2.9515
 IR Inten    --    88.0180                69.6991                19.0649

                    43                     44                     45
                     A                      A                      A
 Frequencies --  1670.6219              1695.6361              1824.8184
 Red. masses --     2.9960                 6.7645                 9.8282
 Frc consts  --     4.9267                11.4591                19.2826
 IR Inten    --   365.6917               316.5544               435.4138

                    46                     47                     48
                     A                      A                      A
 Frequencies --  3197.8373              3246.1548              3252.4960
 Red. masses --     1.0906                 1.0936                 1.0914
 Frc consts  --     6.5708                 6.7897                 6.8022
 IR Inten    --     6.5036                 4.0412                14.6318

                    49                     50                     51
                     A                      A                      A
 Frequencies --  3622.1884              3745.0203              3765.4075
 Red. masses --     1.0450                 1.1052                 1.0645
 Frc consts  --     8.0779                 9.1328                 8.8927
 IR Inten    --   154.6510               116.8508               110.7528

 - Thermochemistry -
 -------------------
 Temperature   298.150 Kelvin.  Pressure   1.00000 Atm.
 Atom     1 has atomic number  6 and mass  12.00000

 Molecular mass:   182.03276 amu.
 Principal axes and moments of inertia in atomic units:
                           1         2         3
     Eigenvalues --  1212.153473293.209444505.36291
           X            0.99999   0.00408   0.00000
           Y           -0.00408   0.99999   0.00000
           Z            0.00000   0.00000   1.00000
 This molecule is an asymmetric top.
 Rotational symmetry number  1.
 Warning -- assumption of classical behavior for rotation
           may cause significant error
 Rotational temperatures (Kelvin)      0.07145     0.02630     0.01922
 Rotational constants (GHZ):           1.48887     0.54802     0.40058
 Zero-point vibrational energy     357611.5 (Joules/Mol)
                                   85.47121 (Kcal/Mol)
 Warning -- explicit consideration of  17 degrees of freedom as
           vibrations may cause significant error
 Vibrational temperatures:     72.46    81.24   153.03   218.71   237.49
          (Kelvin)            343.39   423.53   442.74   508.91   533.79
                              579.63   646.96   749.89   766.58   800.29
                              837.51   863.19   951.09   965.84  1049.85
                             1126.85  1144.96  1179.01  1233.55  1247.98
                             1356.79  1453.10  1472.46  1529.71  1599.37
                             1650.55  1712.85  1741.72  1870.25  1903.31
                             1976.60  2015.00  2052.35  2163.59  2228.18
                             2326.24  2373.71  2403.65  2439.64  2625.50
                             4600.97  4670.49  4679.61  5211.51  5388.24
                             5417.57

 Zero-point correction=                           0.136207 (Hartree/Particle)
 Thermal correction to Energy=                    0.147209
 Thermal correction to Enthalpy=                  0.148153
 Thermal correction to Gibbs Free Energy=         0.098495
 Sum of electronic and zero-point Energies=           -680.550953
 Sum of electronic and thermal Energies=              -680.539950
 Sum of electronic and thermal Enthalpies=            -680.539006
 Sum of electronic and thermal Free Energies=         -680.588664

                     E (Thermal)             CV                S
                      KCal/Mol        Cal/Mol-Kelvin    Cal/Mol-Kelvin
 Total                   92.375             41.261            104.514
 Electronic               0.000              0.000              0.000
 Translational            0.889              2.981             41.504
 Rotational               0.889              2.981             31.265
 Vibrational             90.598             35.300             31.746
 Vibration     1          0.595              1.977              4.803
 Vibration     2          0.596              1.975              4.577
 Vibration     3          0.605              1.944              3.334
 Vibration     4          0.619              1.900              2.647
 Vibration     5          0.623              1.885              2.491
 Vibration     6          0.657              1.781              1.813
 Vibration     7          0.689              1.684              1.449
 Vibration     8          0.698              1.659              1.375
 Vibration     9          0.730              1.568              1.150
 Vibration    10          0.743              1.532              1.076
 Vibration    11          0.768              1.464              0.952
 Vibration    12          0.809              1.362              0.797
 Vibration    13          0.876              1.203              0.607
 Vibration    14          0.888              1.177              0.581
 Vibration    15          0.912              1.126              0.531
 Vibration    16          0.939              1.070              0.481
 Vibration    17          0.958              1.032              0.450

 Normal termination of Gaussian 09 at Sun Feb 12 14:07:15 2023.
