 Gaussian 09, Revision A.02,
 Gaussian 09:  EM64L-G09RevA.02 11-Jun-2009

 ---------------------------------------------------
 # opt=tight freq cam-b3lyp/gen scf=qc int=ultrafine
 ---------------------------------------------------

 ---------------------------
 NA+CCH CAM-B3LYP def2-TZVPD
 ---------------------------
 Symbolic Z-matrix:
 Charge =  0 Multiplicity = 1

 SCF Done:  E(RCAM-B3LYP) =  -568.221974823     a.u. after    9 cycles
 SCF Done:  E(RCAM-B3LYP) =  -568.221969551     a.u. after    3 cycles
 SCF Done:  E(RCAM-B3LYP) =  -568.221949816     a.u. after    4 cycles
 SCF Done:  E(RCAM-B3LYP) =  -568.221970895     a.u. after    3 cycles
 SCF Done:  E(RCAM-B3LYP) =  -568.221979351     a.u. after    3 cycles
 SCF Done:  E(RCAM-B3LYP) =  -568.221980112     a.u. after    2 cycles
 SCF Done:  E(RCAM-B3LYP) =  -568.221980337     a.u. after    2 cycles
 SCF Done:  E(RCAM-B3LYP) =  -568.221980356     a.u. after    2 cycles
 SCF Done:  E(RCAM-B3LYP) =  -568.221980367     a.u. after    2 cycles
 SCF Done:  E(RCAM-B3LYP) =  -568.221980380     a.u. after    2 cycles
 SCF Done:  E(RCAM-B3LYP) =  -568.221980398     a.u. after    2 cycles
 SCF Done:  E(RCAM-B3LYP) =  -568.221980413     a.u. after    2 cycles
 SCF Done:  E(RCAM-B3LYP) =  -568.221980415     a.u. after    2 cycles
 Optimization completed.
    -- Stationary point found.
 Normal termination of Gaussian 09 at Mon Jan  9 01:29:03 2023.

 ----------------------------------------------------------------------
 #N Geom=AllCheck Guess=TCheck SCRF=Check GenChk RCAM-B3LYP/ChkBas Freq
 ----------------------------------------------------------------------

 NA+CCH CAM-B3LYP def2-TZVPD
 ---------------------------
 Redundant internal coordinates taken from checkpoint file:
 /home/matheusmaximo/Gaussian/subst/CCH/cch_s0.chk
 Charge =  0 Multiplicity = 1

                         Standard orientation:
 ---------------------------------------------------------------------
 Center     Atomic      Atomic             Coordinates (Angstroms)
 Number     Number       Type             X           Y           Z
 ---------------------------------------------------------------------
      1          6           0       -0.116957   -0.839786   -0.002728
      2          6           0       -1.149418    0.073753   -0.000731
      3          6           0       -0.901127    1.438598    0.001526
      4          6           0        0.395091    1.887940    0.000050
      5          6           0        1.469308    0.988690   -0.003575
      6          6           0        1.196310   -0.397826   -0.003444
      7          1           0       -0.337046   -1.896188   -0.002184
      8          1           0       -1.732147    2.127407    0.004055
      9          1           0        0.597359    2.951055   -0.001172
     10          7           0       -2.524400   -0.403855    0.000759
     11          8           0       -3.412327    0.426541    0.004418
     12          8           0       -2.710220   -1.604707   -0.001651
     13          7           0        2.749943    1.432224   -0.024702
     14          1           0        2.951215    2.407376    0.092451
     15          1           0        3.505608    0.776229    0.067016
     16          6           0        2.281299   -1.321600    0.000083
     17          6           0        3.221577   -2.062757    0.005126
     18          1           0        4.040084   -2.741201    0.007457
 ---------------------------------------------------------------------

 SCF Done:  E(RCAM-B3LYP) =  -568.221980415     a.u. after    1 cycles

 The electronic state is 1-A.
 Alpha  occ. eigenvalues --  -19.22782 -19.22776 -14.63011 -14.42917 -10.33310
 Alpha  occ. eigenvalues --  -10.30407 -10.29420 -10.28492 -10.28257 -10.27239
 Alpha  occ. eigenvalues --  -10.27209 -10.26217  -1.32055  -1.14039  -1.04962
 Alpha  occ. eigenvalues --   -0.97613  -0.90297  -0.87835  -0.83777  -0.77914
 Alpha  occ. eigenvalues --   -0.74114  -0.69717  -0.65254  -0.63334  -0.61881
 Alpha  occ. eigenvalues --   -0.61733  -0.61672  -0.58543  -0.56394  -0.54044
 Alpha  occ. eigenvalues --   -0.52930  -0.50722  -0.50185  -0.44938  -0.41974
 Alpha  occ. eigenvalues --   -0.40468  -0.38367  -0.37816  -0.37011  -0.36355
 Alpha  occ. eigenvalues --   -0.32768  -0.28879
 Alpha virt. eigenvalues --   -0.04156  -0.01376   0.01659   0.03641   0.04123
 Alpha virt. eigenvalues --    0.04278   0.05645   0.05810   0.07098   0.07313
 Alpha virt. eigenvalues --    0.08478   0.09809   0.10680   0.10879   0.10966

 Mulliken atomic charges:
              1
     1  C   -0.458920
     2  C   -0.295726
     3  C   -0.342799
     4  C   -0.552772
     5  C    0.443561
     6  C    0.984106
     7  H    0.491909
     8  H    0.441885
     9  H    0.273714
    10  N    0.908587
    11  O   -0.592532
    12  O   -0.584895
    13  N   -0.358295
    14  H    0.156132
    15  H    0.180845
    16  C   -0.578063
    17  C   -0.571803
    18  H    0.455068
 Sum of Mulliken atomic charges =   0.00000

 Dipole moment (field-independent basis, Debye):
    X=              6.4104    Y=              2.6936    Z=              0.2808  Tot=              6.9590
 Quadrupole moment (field-independent basis, Debye-Ang):
   XX=            -71.7987   YY=            -60.7855   ZZ=            -71.4320
   XY=             -1.8329   XZ=              1.0523   YZ=              0.5647

  Exact polarizability: 180.965  -8.748 135.466  -0.136  -0.025  64.780
 Approx polarizability: 208.341 -14.734 179.850  -0.335  -0.057  86.049

                     1                      2                      3
                     A                      A                      A
 Frequencies --    59.1383               112.7014               129.0237
 Red. masses --    12.3512                 6.5575                 4.6547
 Frc consts  --     0.0255                 0.0491                 0.0457
 IR Inten    --     0.0304                 1.0619                 4.3299

                     4                      5                      6
                     A                      A                      A
 Frequencies --   136.3263               177.0990               232.5650
 Red. masses --     3.5405                 1.2384                 5.8697
 Frc consts  --     0.0388                 0.0229                 0.1870
 IR Inten    --    24.2429               173.3203                 0.4638

                     7                      8                      9
                     A                      A                      A
 Frequencies --   294.0785               366.6565               381.4354
 Red. masses --     6.4589                 8.3714                 4.4069
 Frc consts  --     0.3291                 0.6631                 0.3778
 IR Inten    --     6.6305                 0.3896                 3.4309

                    10                     11                     12
                     A                      A                      A
 Frequencies --   400.6899               470.6655               478.0874
 Red. masses --     3.8226                 4.0746                 1.1350
 Frc consts  --     0.3616                 0.5318                 0.1528
 IR Inten    --     1.7983                 9.7131                 3.9133

                    13                     14                     15
                     A                      A                      A
 Frequencies --   502.3598               538.8604               592.1683
 Red. masses --     3.0643                 8.0484                 4.6507
 Frc consts  --     0.4556                 1.3769                 0.9609
 IR Inten    --     3.3247                 4.5341                 3.0397

                    16                     17                     18
                     A                      A                      A
 Frequencies --   601.8296               669.1579               671.2035
 Red. masses --     4.0535                 1.3241                 6.4320
 Frc consts  --     0.8650                 0.3493                 1.7073
 IR Inten    --     2.5436                48.7625                19.6596

                    19                     20                     21
                     A                      A                      A
 Frequencies --   740.1949               762.0951               792.7738
 Red. masses --     1.3345                 3.4341                 6.2165
 Frc consts  --     0.4308                 1.1751                 2.3019
 IR Inten    --    27.4136                 7.1747                22.1616

                    22                     23                     24
                     A                      A                      A
 Frequencies --   794.9389               854.3955               862.7444
 Red. masses --     5.4963                 6.8785                 1.8044
 Frc consts  --     2.0464                 2.9584                 0.7913
 IR Inten    --    24.5045                 5.9013                15.7997

                    25                     26                     27
                     A                      A                      A
 Frequencies --   958.9594               978.4771              1012.5325
 Red. masses --     5.7433                 1.4819                 1.3521
 Frc consts  --     3.1118                 0.8359                 0.8168
 IR Inten    --    19.4061                10.6029                 0.0577

                    28                     29                     30
                     A                      A                      A
 Frequencies --  1059.8796              1122.5144              1182.2353
 Red. masses --     1.5580                 1.8001                 1.2199
 Frc consts  --     1.0312                 1.3364                 1.0046
 IR Inten    --     1.1204                77.1780                22.5679

                    31                     32                     33
                     A                      A                      A
 Frequencies --  1231.5288              1300.6704              1357.3608
 Red. masses --     5.7419                 1.5960                 2.9033
 Frc consts  --     5.1309                 1.5908                 3.1516
 IR Inten    --    53.2945                 8.9083                36.0895

                    34                     35                     36
                     A                      A                      A
 Frequencies --  1372.3859              1423.6224              1489.1593
 Red. masses --     4.5779                12.0712                 5.1381
 Frc consts  --     5.0801                14.4142                 6.7133
 IR Inten    --   104.1138               562.7499                 5.1681

                    37                     38                     39
                     A                      A                      A
 Frequencies --  1550.4284              1618.9792              1647.7418
 Red. masses --     2.8642                 9.7121                 1.8701
 Frc consts  --     4.0566                14.9985                 2.9915
 IR Inten    --    59.9249               143.0626                27.1822

                    40                     41                     42
                     A                      A                      A
 Frequencies --  1666.7694              1689.8264              2246.0709
 Red. masses --     2.8036                 6.3013                 5.9839
 Frc consts  --     4.5891                10.6014                17.7862
 IR Inten    --   296.9684               188.4905                16.7361

                    43                     44                     45
                     A                      A                      A
 Frequencies --  3200.4008              3247.3131              3251.0679
 Red. masses --     1.0907                 1.0933                 1.0924
 Frc consts  --     6.5820                 6.7927                 6.8027
 IR Inten    --     6.7486                 4.3805                 5.5416

                    46                     47                     48
                     A                      A                      A
 Frequencies --  3476.4421              3616.4889              3737.9607
 Red. masses --     1.1627                 1.0461                 1.1039
 Frc consts  --     8.2794                 8.0608                 9.0876
 IR Inten    --   112.8859                98.9004                59.8134

 - Thermochemistry -
 -------------------
 Temperature   298.150 Kelvin.  Pressure   1.00000 Atm.
 Atom     1 has atomic number  6 and mass  12.00000

 Molecular mass:   162.04293 amu.
 Principal axes and moments of inertia in atomic units:
                           1         2         3
     Eigenvalues --   956.349192846.940523803.13207
           X            0.99999  -0.00437   0.00067
           Y            0.00437   0.99999   0.00098
           Z           -0.00067  -0.00098   1.00000
 This molecule is an asymmetric top.
 Rotational symmetry number  1.
 Warning -- assumption of classical behavior for rotation
           may cause significant error
 Rotational temperatures (Kelvin)      0.09057     0.03042     0.02277
 Rotational constants (GHZ):           1.88712     0.63392     0.47454
 Zero-point vibrational energy     341294.6 (Joules/Mol)
                                   81.57137 (Kcal/Mol)
 Warning -- explicit consideration of  16 degrees of freedom as
           vibrations may cause significant error
 Vibrational temperatures:     85.09   162.15   185.64   196.14   254.81
          (Kelvin)            334.61   423.11   527.54   548.80   576.50
                              677.18   687.86   722.78   775.30   852.00
                              865.90   962.77   965.71  1064.97  1096.48
                             1140.62  1143.74  1229.28  1241.30  1379.73
                             1407.81  1456.81  1524.93  1615.05  1700.97
                             1771.89  1871.37  1952.94  1974.55  2048.27
                             2142.57  2230.72  2329.35  2370.73  2398.11
                             2431.28  3231.59  4604.66  4672.15  4677.56
                             5001.82  5203.31  5378.08

 Zero-point correction=                           0.129992 (Hartree/Particle)
 Thermal correction to Energy=                    0.140428
 Thermal correction to Enthalpy=                  0.141372
 Thermal correction to Gibbs Free Energy=         0.093707
 Sum of electronic and zero-point Energies=           -568.091988
 Sum of electronic and thermal Energies=              -568.081552
 Sum of electronic and thermal Enthalpies=            -568.080608
 Sum of electronic and thermal Free Energies=         -568.128273

                     E (Thermal)             CV                S
                      KCal/Mol        Cal/Mol-Kelvin    Cal/Mol-Kelvin
 Total                   88.120             39.335            100.320
 Electronic               0.000              0.000              0.000
 Translational            0.889              2.981             41.157
 Rotational               0.889              2.981             30.716
 Vibrational             86.342             33.374             28.447
 Vibration     1          0.597              1.974              4.486
 Vibration     2          0.607              1.939              3.222
 Vibration     3          0.612              1.924              2.961
 Vibration     4          0.614              1.917              2.855
 Vibration     5          0.628              1.871              2.359
 Vibration     6          0.653              1.791              1.859
 Vibration     7          0.689              1.685              1.450
 Vibration     8          0.740              1.541              1.094
 Vibration     9          0.751              1.510              1.033
 Vibration    10          0.767              1.469              0.960
 Vibration    11          0.828              1.315              0.736
 Vibration    12          0.835              1.299              0.715
 Vibration    13          0.858              1.245              0.652
 Vibration    14          0.894              1.164              0.568
 Vibration    15          0.950              1.048              0.463
 Vibration    16          0.960              1.028              0.447

 Normal termination of Gaussian 09 at Mon Jan  9 14:59:21 2023.
