 Gaussian 09, Revision A.02,
 Gaussian 09:  EM64L-G09RevA.02 11-Jun-2009

 ---------------------------------------------------
 # opt=tight freq cam-b3lyp/gen scf=qc int=ultrafine
 ---------------------------------------------------

 --------------------------
 NA+Br CAM-B3LYP def2-TZVPD
 --------------------------
 Symbolic Z-matrix:
 Charge =  0 Multiplicity = 1

 SCF Done:  E(RCAM-B3LYP) =  -3065.67896829     a.u. after    9 cycles
 SCF Done:  E(RCAM-B3LYP) =  -3065.74776673     a.u. after    7 cycles
 SCF Done:  E(RCAM-B3LYP) =  -3065.76595083     a.u. after    9 cycles
 SCF Done:  E(RCAM-B3LYP) =  -3065.76902786     a.u. after    6 cycles
 SCF Done:  E(RCAM-B3LYP) =  -3065.76904783     a.u. after    5 cycles
 SCF Done:  E(RCAM-B3LYP) =  -3065.76622140     a.u. after    6 cycles
 SCF Done:  E(RCAM-B3LYP) =  -3065.76919937     a.u. after    6 cycles
 SCF Done:  E(RCAM-B3LYP) =  -3065.76928661     a.u. after    5 cycles
 SCF Done:  E(RCAM-B3LYP) =  -3065.76929317     a.u. after    3 cycles
 SCF Done:  E(RCAM-B3LYP) =  -3065.76929840     a.u. after    3 cycles
 SCF Done:  E(RCAM-B3LYP) =  -3065.76930210     a.u. after    3 cycles
 SCF Done:  E(RCAM-B3LYP) =  -3065.76930348     a.u. after    4 cycles
 SCF Done:  E(RCAM-B3LYP) =  -3065.76930389     a.u. after    2 cycles
 SCF Done:  E(RCAM-B3LYP) =  -3065.76930393     a.u. after    2 cycles
 SCF Done:  E(RCAM-B3LYP) =  -3065.76930393     a.u. after    2 cycles
 SCF Done:  E(RCAM-B3LYP) =  -3065.76930393     a.u. after    2 cycles
 Optimization completed.
    -- Stationary point found.
 Normal termination of Gaussian 09 at Sun Feb 12 04:15:33 2023.

 ----------------------------------------------------------------------
 #N Geom=AllCheck Guess=TCheck SCRF=Check GenChk RCAM-B3LYP/ChkBas Freq
 ----------------------------------------------------------------------

 NA+Br CAM-B3LYP def2-TZVPD
 --------------------------
 Redundant internal coordinates taken from checkpoint file:
 /home/matheusmaximo/Gaussian/substituent/br/br_s0.chk
 Charge =  0 Multiplicity = 1

                         Standard orientation:
 ---------------------------------------------------------------------
 Center     Atomic      Atomic             Coordinates (Angstroms)
 Number     Number       Type             X           Y           Z
 ---------------------------------------------------------------------
      1          6           0       -0.521889   -0.620647   -0.001999
      2          6           0       -1.703797    0.095340   -0.000970
      3          6           0       -1.703556    1.479862    0.000066
      4          6           0       -0.505670    2.149907   -0.001254
      5          6           0        0.717242    1.463381   -0.003908
      6          6           0        0.671549    0.061016   -0.003422
      7          1           0       -0.550173   -1.699164   -0.000382
      8          1           0       -2.642681    2.011559    0.001842
      9          1           0       -0.494307    3.232157   -0.003798
     10          7           0       -2.969163   -0.625386    0.001107
     11          8           0       -3.992481    0.029830    0.003994
     12          8           0       -2.931810   -1.839782   -0.000010
     13          7           0        1.892041    2.144365   -0.032776
     14          1           0        1.891358    3.134922    0.125475
     15          1           0        2.755898    1.651829    0.108618
     16         35           0        2.292880   -0.921648    0.000771
 ---------------------------------------------------------------------

 SCF Done:  E(RCAM-B3LYP) =  -3065.76930393     a.u. after    1 cycles

 The electronic state is 1-A.
 Alpha  occ. eigenvalues -- -482.94871 -62.58975 -56.40798 -56.40431 -56.40428
 Alpha  occ. eigenvalues --  -19.23175 -19.23169 -14.63415 -14.43208 -10.33823
 Alpha  occ. eigenvalues --  -10.32491 -10.30973 -10.28975 -10.28481 -10.27774
 Alpha  occ. eigenvalues --   -8.79103  -6.62245  -6.61099  -6.61089  -2.73888
 Alpha  occ. eigenvalues --   -2.73551  -2.73543  -2.72630  -2.72629  -1.32466
 Alpha  occ. eigenvalues --   -1.14463  -1.05398  -0.98297  -0.92441  -0.88419
 Alpha  occ. eigenvalues --   -0.84074  -0.78434  -0.72921  -0.67814  -0.64496
 Alpha  occ. eigenvalues --   -0.63567  -0.62312  -0.62134  -0.58823  -0.54597
 Alpha  occ. eigenvalues --   -0.54009  -0.51582  -0.51165  -0.50288  -0.44233
 Alpha  occ. eigenvalues --   -0.42402  -0.40648  -0.38774  -0.38191  -0.37705
 Alpha  occ. eigenvalues --   -0.36799  -0.33397  -0.29622
 Alpha virt. eigenvalues --   -0.04609  -0.00119   0.00986   0.01613   0.03562
 Alpha virt. eigenvalues --    0.04370   0.04568   0.05291   0.05508   0.05740
 Alpha virt. eigenvalues --    0.06958   0.08929   0.09340   0.10340   0.10519

 Mulliken atomic charges:
              1
     1  C   -0.334129
     2  C   -0.336839
     3  C   -0.456279
     4  C   -0.553816
     5  C    0.921147
     6  C    0.155894
     7  H    0.500851
     8  H    0.437312
     9  H    0.235634
    10  N    0.912844
    11  O   -0.587794
    12  O   -0.590155
    13  N   -0.394384
    14  H    0.194058
    15  H    0.159278
    16  Br  -0.263621
 Sum of Mulliken atomic charges =   0.00000

 Dipole moment (field-independent basis, Debye):
    X=              4.7704    Y=              4.2230    Z=              0.3937  Tot=              6.3832
 Quadrupole moment (field-independent basis, Debye-Ang):
   XX=            -88.8267   YY=            -67.2257   ZZ=            -77.6131
   XY=             -1.8459   XZ=              1.0995   YZ=              1.1563

  Exact polarizability: 169.909   6.893 131.865  -0.223  -0.030  67.375
 Approx polarizability: 197.284   1.916 176.046  -0.515  -0.116  91.445

                     1                      2                      3
                     A                      A                      A
 Frequencies --    58.2418               112.9595               152.8738
 Red. masses --    14.9751                 5.5722                15.5538
 Frc consts  --     0.0299                 0.0419                 0.2142
 IR Inten    --     0.1177                 0.1460                 1.8080

                     4                      5                      6
                     A                      A                      A
 Frequencies --   161.8923               243.3251               252.9228
 Red. masses --     5.1439                 1.2382                 4.9241
 Frc consts  --     0.0794                 0.0432                 0.1856
 IR Inten    --     1.1332               220.9379                11.0830

                     7                      8                      9
                     A                      A                      A
 Frequencies --   301.8758               318.7478               371.1734
 Red. masses --    11.7399                 7.3720                 8.9654
 Frc consts  --     0.6303                 0.4413                 0.7277
 IR Inten    --     1.0769                 1.2167                 0.6133

                    10                     11                     12
                     A                      A                      A
 Frequencies --   440.7192               459.5230               466.9076
 Red. masses --     1.1594                 2.9223                 2.8483
 Frc consts  --     0.1327                 0.3636                 0.3658
 IR Inten    --     4.0811                 3.4249                 1.7946

                    13                     14                     15
                     A                      A                      A
 Frequencies --   556.1672               560.1928               663.1735
 Red. masses --     3.7746                 5.5419                 7.4717
 Frc consts  --     0.6879                 1.0247                 1.9361
 IR Inten    --     2.2764                 3.3146                 7.1746

                    16                     17                     18
                     A                      A                      A
 Frequencies --   721.4447               740.1191               793.0693
 Red. masses --     8.1414                 3.5703                 5.3541
 Frc consts  --     2.4966                 1.1523                 1.9841
 IR Inten    --    42.3528                 2.4592                27.7411

                    19                     20                     21
                     A                      A                      A
 Frequencies --   851.3933               859.6464               923.6677
 Red. masses --     5.8548                 1.7558                 8.5568
 Frc consts  --     2.5005                 0.7645                 4.3012
 IR Inten    --     4.4163                17.5576                22.7707

                    22                     23                     24
                     A                      A                      A
 Frequencies --   966.7967              1009.3752              1057.1188
 Red. masses --     1.4718                 1.3539                 1.8514
 Frc consts  --     0.8106                 0.8127                 1.2190
 IR Inten    --     9.5312                 0.1638                 0.9299

                    25                     26                     27
                     A                      A                      A
 Frequencies --  1079.8942              1156.6409              1183.1123
 Red. masses --     1.8083                 2.3415                 1.3967
 Frc consts  --     1.2425                 1.8456                 1.1518
 IR Inten    --    13.2599               161.2979                16.1674

                    28                     29                     30
                     A                      A                      A
 Frequencies --  1297.7926              1357.8615              1366.6411
 Red. masses --     1.5339                 3.4405                 3.7815
 Frc consts  --     1.5221                 3.7375                 4.1613
 IR Inten    --     5.0226                25.3011                93.9561

                    31                     32                     33
                     A                      A                      A
 Frequencies --  1423.8013              1473.3968              1550.6662
 Red. masses --    11.9920                 4.5281                 2.8827
 Frc consts  --    14.3232                 5.7917                 4.0840
 IR Inten    --   542.7847                 0.8446                61.6610

                    34                     35                     36
                     A                      A                      A
 Frequencies --  1617.3367              1647.1800              1672.2249
 Red. masses --    10.3732                 1.5923                 9.1688
 Frc consts  --    15.9870                 2.5453                15.1060
 IR Inten    --   194.2954                21.6566               134.8207

                    37                     38                     39
                     A                      A                      A
 Frequencies --  1677.5969              3199.4773              3249.3516
 Red. masses --     3.1670                 1.0906                 1.0934
 Frc consts  --     5.2514                 6.5778                 6.8020
 IR Inten    --   307.6200                 5.7892                 4.1212

                    40                     41                     42
                     A                      A                      A
 Frequencies --  3252.0853              3617.8958              3733.8644
 Red. masses --     1.0924                 1.0459                 1.1037
 Frc consts  --     6.8068                 8.0659                 9.0657
 IR Inten    --     9.1017                98.3346                58.3691

 - Thermochemistry -
 -------------------
 Temperature   298.150 Kelvin.  Pressure   1.00000 Atm.
 Atom     1 has atomic number  6 and mass  12.00000

 Molecular mass:   215.95344 amu.
 Principal axes and moments of inertia in atomic units:
                           1         2         3
     Eigenvalues --  1184.169933879.097365062.96717
           X            0.99958   0.02894   0.00049
           Y           -0.02894   0.99958   0.00179
           Z           -0.00044  -0.00180   1.00000
 This molecule is an asymmetric top.
 Rotational symmetry number  1.
 Warning -- assumption of classical behavior for rotation
           may cause significant error
 Rotational temperatures (Kelvin)      0.07314     0.02233     0.01711
 Rotational constants (GHZ):           1.52406     0.46525     0.35646
 Zero-point vibrational energy     290693.4 (Joules/Mol)
                                   69.47740 (Kcal/Mol)
 Warning -- explicit consideration of  14 degrees of freedom as
           vibrations may cause significant error
 Vibrational temperatures:     83.80   162.52   219.95   232.93   350.09
          (Kelvin)            363.90   434.33   458.61   534.04   634.10
                              661.15   671.78   800.20   805.99   954.16
                             1038.00  1064.87  1141.05  1224.96  1236.84
                             1328.95  1391.00  1452.26  1520.96  1553.72
                             1664.15  1702.23  1867.23  1953.66  1966.29
                             2048.53  2119.89  2231.06  2326.98  2369.92
                             2405.96  2413.68  4603.33  4675.09  4679.02
                             5205.34  5372.19

 Zero-point correction=                           0.110719 (Hartree/Particle)
 Thermal correction to Energy=                    0.120434
 Thermal correction to Enthalpy=                  0.121378
 Thermal correction to Gibbs Free Energy=         0.074223
 Sum of electronic and zero-point Energies=          -3065.658585
 Sum of electronic and thermal Energies=             -3065.648870
 Sum of electronic and thermal Enthalpies=           -3065.647926
 Sum of electronic and thermal Free Energies=        -3065.695081

                     E (Thermal)             CV                S
                      KCal/Mol        Cal/Mol-Kelvin    Cal/Mol-Kelvin
 Total                   75.573             35.681             99.245
 Electronic               0.000              0.000              0.000
 Translational            0.889              2.981             42.013
 Rotational               0.889              2.981             31.520
 Vibrational             73.796             29.719             25.712
 Vibration     1          0.596              1.974              4.516
 Vibration     2          0.607              1.939              3.217
 Vibration     3          0.619              1.899              2.636
 Vibration     4          0.622              1.889              2.528
 Vibration     5          0.659              1.774              1.778
 Vibration     6          0.664              1.758              1.710
 Vibration     7          0.694              1.670              1.406
 Vibration     8          0.705              1.638              1.317
 Vibration     9          0.743              1.531              1.075
 Vibration    10          0.801              1.381              0.824
 Vibration    11          0.817              1.340              0.767
 Vibration    12          0.824              1.323              0.746
 Vibration    13          0.912              1.126              0.532
 Vibration    14          0.916              1.117              0.523

 Optimization completed.
    -- Stationary point found.
 Normal termination of Gaussian 09 at Sun Feb 12 11:04:22 2023.
