 Gaussian 09, Revision A.02,
 Gaussian 09:  EM64L-G09RevA.02 11-Jun-2009

 ----------------------------------------------------
 # td=(nstates=15) cam-b3lyp/gen scf=qc int=ultrafine
 ----------------------------------------------------

 ---------------------------------------
 NA+CN CAM-B3LYP def2-TZVPD Single point
 ---------------------------------------
 Symbolic Z-matrix:
 Charge =  0 Multiplicity = 1

                         Standard orientation:
 ---------------------------------------------------------------------
 Center     Atomic      Atomic             Coordinates (Angstroms)
 Number     Number       Type             X           Y           Z
 ---------------------------------------------------------------------
      1          6           0        0.133723   -0.857290    0.000001
      2          6           0        1.137241    0.083385    0.000001
      3          6           0        0.848267    1.442287    0.000003
      4          6           0       -0.456493    1.861329    0.000003
      5          6           0       -1.510531    0.935359    0.000001
      6          6           0       -1.187492   -0.439175    0.000000
      7          1           0        0.380093   -1.908220    0.000002
      8          1           0        1.661614    2.152263    0.000003
      9          1           0       -0.684378    2.918933    0.000007
     10          7           0        2.526902   -0.355317    0.000000
     11          8           0        3.387562    0.501708   -0.000018
     12          8           0        2.743592   -1.549798    0.000015
     13          7           0       -2.798314    1.342664    0.000005
     14          1           0       -3.026558    2.318923   -0.000002
     15          1           0       -3.552783    0.678271   -0.000011
     16          6           0       -2.255982   -1.382967   -0.000004
     17          7           0       -3.168534   -2.077779   -0.000007
 ---------------------------------------------------------------------

 SCF Done:  E(RCAM-B3LYP) =  -584.325557328     a.u. after    9 cycles

 Excitation energies and oscillator strengths:

 Excited State   1:      Singlet-A      4.1132 eV  301.43 nm  f=0.0000  <S**2>=0.000
      40 -> 43         0.66726
      40 -> 46        -0.20221
 This state for optimization and/or second-order correction.
 Copying the excited state density for this state as the 1-particle RhoCI density.

 Excited State   2:      Singlet-A      4.5062 eV  275.14 nm  f=0.1566  <S**2>=0.000
      41 -> 43        -0.17325
      42 -> 43        -0.40708
      42 -> 44         0.52642

 Excited State   3:      Singlet-A      4.5142 eV  274.65 nm  f=0.2402  <S**2>=0.000
      41 -> 43        -0.15227
      42 -> 43         0.55221
      42 -> 44         0.38839

 Excited State   4:      Singlet-A      4.6440 eV  266.98 nm  f=0.0004  <S**2>=0.000
      38 -> 43         0.66629
      38 -> 46        -0.19426

 Excited State   5:      Singlet-A      5.5672 eV  222.71 nm  f=0.1103  <S**2>=0.000
      41 -> 43         0.64537
      42 -> 44         0.23951

 Excited State   6:      Singlet-A      5.9336 eV  208.95 nm  f=0.0022  <S**2>=0.000
      42 -> 45         0.68259

 Excited State   7:      Singlet-A      6.0355 eV  205.42 nm  f=0.1824  <S**2>=0.000
      41 -> 43        -0.11522
      41 -> 44         0.51671
      42 -> 46         0.42556

 Excited State   8:      Singlet-A      6.4466 eV  192.33 nm  f=0.1402  <S**2>=0.000
      39 -> 43         0.63794
      41 -> 44        -0.19582
      42 -> 46         0.14764

 Excited State   9:      Singlet-A      6.5138 eV  190.34 nm  f=0.3679  <S**2>=0.000
      36 -> 43         0.10174
      39 -> 43        -0.23047
      41 -> 44        -0.39703
      42 -> 46         0.50143

 Excited State  10:      Singlet-A      6.5624 eV  188.93 nm  f=0.0000  <S**2>=0.000
      35 -> 49         0.10614
      41 -> 49         0.21903
      41 -> 52        -0.10761
      42 -> 47         0.33236
      42 -> 48        -0.11792
      42 -> 49         0.40826
      42 -> 50         0.22112
      42 -> 52        -0.17296

 Excited State  11:      Singlet-A      6.7890 eV  182.63 nm  f=0.0001  <S**2>=0.000
      40 -> 44         0.17317
      42 -> 47         0.42006
      42 -> 48        -0.33449
      42 -> 49        -0.32238
      42 -> 50         0.10546

 Excited State  12:      Singlet-A      6.8039 eV  182.22 nm  f=0.0000  <S**2>=0.000
      37 -> 44        -0.11903
      40 -> 44         0.65393
      42 -> 47        -0.10124
      42 -> 49         0.11919

 Excited State  13:      Singlet-A      6.8733 eV  180.39 nm  f=0.0111  <S**2>=0.000
      41 -> 45         0.15992
      42 -> 47         0.36924
      42 -> 48         0.52710
      42 -> 51        -0.14330

 Excited State  14:      Singlet-A      6.9927 eV  177.31 nm  f=0.0001  <S**2>=0.000
      37 -> 44         0.38769
      37 -> 57         0.10657
      38 -> 44         0.52426
      40 -> 44         0.15073

 Excited State  15:      Singlet-A      7.2634 eV  170.70 nm  f=0.0000  <S**2>=0.000
      37 -> 44         0.48626
      37 -> 46         0.10814
      37 -> 57         0.11586
      38 -> 44        -0.44514

 The electronic state is 1-A.
 Alpha  occ. eigenvalues --  -19.24072 -19.24055 -14.64326 -14.44677 -14.40930
 Alpha  occ. eigenvalues --  -10.35461 -10.32049 -10.31688 -10.30614 -10.30592
 Alpha  occ. eigenvalues --  -10.30029 -10.28932  -1.33401  -1.15423  -1.06965
 Alpha  occ. eigenvalues --   -1.01502  -0.99241  -0.90754  -0.89236  -0.79748
 Alpha  occ. eigenvalues --   -0.76901  -0.71882  -0.66897  -0.65078  -0.63565
 Alpha  occ. eigenvalues --   -0.63062  -0.60647  -0.59423  -0.55908  -0.54866
 Alpha  occ. eigenvalues --   -0.52822  -0.52234  -0.47303  -0.45361  -0.45106
 Alpha  occ. eigenvalues --   -0.43582  -0.43161  -0.39370  -0.39089  -0.37710
 Alpha  occ. eigenvalues --   -0.35643  -0.30992
 Alpha virt. eigenvalues --   -0.05462  -0.03206   0.00934   0.02735   0.03304
 Alpha virt. eigenvalues --    0.03534   0.05538   0.06280   0.06629   0.07165
 Alpha virt. eigenvalues --    0.09337   0.09920   0.10174   0.10797   0.10952

 Mulliken atomic charges:
              1
     1  C   -0.426212
     2  C   -0.241747
     3  C   -0.316840
     4  C   -0.562819
     5  C    0.711026
     6  C    0.155207
     7  H    0.504242
     8  H    0.448775
     9  H    0.275710
    10  N    0.902875
    11  O   -0.584924
    12  O   -0.579450
    13  N   -0.365811
    14  H    0.149149
    15  H    0.197904
    16  C    0.010952
    17  N   -0.278038
 Sum of Mulliken atomic charges =   0.00000

 Dipole moment (field-independent basis, Debye):
    X=             -3.4125    Y=              5.1947    Z=              0.0000  Tot=              6.2153
 Quadrupole moment (field-independent basis, Debye-Ang):
   XX=            -84.2248   YY=            -66.7199   ZZ=            -69.4766
   XY=            -11.5441   XZ=              0.0001   YZ=              0.0000

 Normal termination of Gaussian 09 at Sat Mar 11 04:59:23 2023.
