 Gaussian 09, Revision A.02,
 Gaussian 09:  EM64L-G09RevA.02 11-Jun-2009

 ----------------------------------------------------
 # td=(nstates=15) cam-b3lyp/gen scf=qc int=ultrafine
 ----------------------------------------------------

 -----------------------------------------
 NA+COOH CAM-B3LYP def2-TZVPD Single point
 -----------------------------------------
 Symbolic Z-matrix:
 Charge =  0 Multiplicity = 1

                         Standard orientation:
 ---------------------------------------------------------------------
 Center     Atomic      Atomic             Coordinates (Angstroms)
 Number     Number       Type             X           Y           Z
 ---------------------------------------------------------------------
      1          6           0       -0.298778   -0.671403   -0.000003
      2          6           0       -1.403279    0.142716    0.000003
      3          6           0       -1.270981    1.529493    0.000010
      4          6           0       -0.024461    2.086026    0.000010
      5          6           0        1.137093    1.285949    0.000003
      6          6           0        0.978536   -0.122941   -0.000002
      7          1           0       -0.428111   -1.741932   -0.000006
      8          1           0       -2.158429    2.144372    0.000015
      9          1           0        0.086728    3.162510    0.000014
     10          7           0       -2.731972   -0.449973    0.000003
     11          8           0       -3.685544    0.304560    0.000002
     12          8           0       -2.816762   -1.661706    0.000002
     13          7           0        2.348035    1.868660   -0.000005
     14          1           0        2.426163    2.868398    0.000012
     15          1           0        3.172064    1.286418   -0.000008
     16          6           0        2.153815   -1.001280   -0.000003
     17          8           0        3.307316   -0.628155    0.000005
     18          8           0        1.853215   -2.308388   -0.000022
     19          1           0        2.691675   -2.792417   -0.000024
 ---------------------------------------------------------------------

 SCF Done:  E(RCAM-B3LYP) =  -680.693353481     a.u. after    9 cycles

 Excitation energies and oscillator strengths:

 Excited State   1:      Singlet-A      4.1153 eV  301.28 nm  f=0.0000  <S**2>=0.000
      45 -> 48         0.66939
      45 -> 52        -0.17182
 This state for optimization and/or second-order correction.
 Copying the excited state density for this state as the 1-particle RhoCI density.

 Excited State   2:      Singlet-A      4.3084 eV  287.77 nm  f=0.0788  <S**2>=0.000
      46 -> 48        -0.15767
      47 -> 49         0.67736

 Excited State   3:      Singlet-A      4.4546 eV  278.33 nm  f=0.3440  <S**2>=0.000
      46 -> 49         0.10586
      47 -> 48         0.68623

 Excited State   4:      Singlet-A      4.6591 eV  266.11 nm  f=0.0004  <S**2>=0.000
      42 -> 48         0.60043
      42 -> 52        -0.15202
      44 -> 48         0.30145

 Excited State   5:      Singlet-A      5.4489 eV  227.54 nm  f=0.0000  <S**2>=0.000
      42 -> 49        -0.21048
      44 -> 49         0.61418
      44 -> 52        -0.14549
      44 -> 58         0.15684

 Excited State   6:      Singlet-A      5.6035 eV  221.26 nm  f=0.0947  <S**2>=0.000
      46 -> 48         0.62002
      46 -> 49        -0.17100
      47 -> 49         0.16551
      47 -> 52        -0.20596

 Excited State   7:      Singlet-A      5.8879 eV  210.57 nm  f=0.0008  <S**2>=0.000
      47 -> 50         0.55478
      47 -> 51        -0.39900

 Excited State   8:      Singlet-A      5.9360 eV  208.87 nm  f=0.1576  <S**2>=0.000
      46 -> 48         0.27099
      46 -> 49         0.47733
      47 -> 52         0.40905

 Excited State   9:      Singlet-A      6.3295 eV  195.88 nm  f=0.2590  <S**2>=0.000
      43 -> 48         0.20169
      46 -> 49        -0.45235
      47 -> 52         0.47770

 Excited State  10:      Singlet-A      6.4760 eV  191.45 nm  f=0.2096  <S**2>=0.000
      43 -> 48         0.64388
      47 -> 52        -0.18119

 Excited State  11:      Singlet-A      6.5271 eV  189.95 nm  f=0.0000  <S**2>=0.000
      47 -> 50         0.29882
      47 -> 51         0.44925
      47 -> 53         0.17184
      47 -> 54         0.37096
      47 -> 56        -0.11183

 Excited State  12:      Singlet-A      6.6794 eV  185.62 nm  f=0.0000  <S**2>=0.000
      45 -> 49         0.68232
      45 -> 52         0.10239

 Excited State  13:      Singlet-A      6.7643 eV  183.29 nm  f=0.0004  <S**2>=0.000
      39 -> 48         0.14904
      42 -> 48        -0.28691
      44 -> 48         0.57027
      44 -> 52         0.16268
      47 -> 53         0.11993

 Excited State  14:      Singlet-A      6.7870 eV  182.68 nm  f=0.0103  <S**2>=0.000
      44 -> 48        -0.10943
      47 -> 51        -0.16856
      47 -> 53         0.62879
      47 -> 56        -0.10785

 Excited State  15:      Singlet-A      7.0048 eV  177.00 nm  f=0.0000  <S**2>=0.000
      47 -> 50        -0.27695
      47 -> 51        -0.26853
      47 -> 54         0.53407
      47 -> 56        -0.11835
      47 -> 59         0.10335

 The electronic state is 1-A.
 Alpha  occ. eigenvalues --  -19.26806 -19.23085 -19.23064 -19.21234 -14.63323
 Alpha  occ. eigenvalues --  -14.42737 -10.40826 -10.34099 -10.30734 -10.29075
 Alpha  occ. eigenvalues --  -10.28948 -10.28765 -10.27639  -1.32365  -1.22032
 Alpha  occ. eigenvalues --   -1.14355  -1.12501  -1.04996  -0.97972  -0.89580
 Alpha  occ. eigenvalues --   -0.88019  -0.78227  -0.77097  -0.72906  -0.67556
 Alpha  occ. eigenvalues --   -0.64901  -0.63012  -0.62060  -0.61977  -0.60267
 Alpha  occ. eigenvalues --   -0.58420  -0.57991  -0.55838  -0.53957  -0.53071
 Alpha  occ. eigenvalues --   -0.51032  -0.49559  -0.49010  -0.45639  -0.42584
 Alpha  occ. eigenvalues --   -0.41420  -0.38686  -0.38171  -0.37445  -0.36710
 Alpha  occ. eigenvalues --   -0.35299  -0.29760
 Alpha virt. eigenvalues --   -0.04394  -0.03054   0.01343   0.02498   0.03544
 Alpha virt. eigenvalues --    0.04093   0.04937   0.06383   0.06947   0.07009
 Alpha virt. eigenvalues --    0.08703   0.08706   0.09552   0.10167   0.10440

 Mulliken atomic charges:
              1
     1  C   -0.217313
     2  C   -0.393690
     3  C   -0.327643
     4  C   -0.564910
     5  C    0.501718
     6  C   -0.153735
     7  H    0.559644
     8  H    0.454393
     9  H    0.285535
    10  N    0.915752
    11  O   -0.596675
    12  O   -0.587039
    13  N   -0.288383
    14  H    0.110059
    15  H    0.233697
    16  C    0.746823
    17  O   -0.612938
    18  O   -0.394167
    19  H    0.328872
 Sum of Mulliken atomic charges =   0.00000

 Dipole moment (field-independent basis, Debye):
    X=              4.6271    Y=              2.8090    Z=              0.0000  Tot=              5.4130
 Quadrupole moment (field-independent basis, Debye-Ang):
   XX=            -90.1353   YY=            -61.3808   ZZ=            -75.0468
   XY=             -3.8261   XZ=              0.0000   YZ=              0.0001

 Normal termination of Gaussian 09 at Mon Mar 13 01:04:31 2023.
