 Gaussian 09, Revision A.02,
 Gaussian 09:  EM64L-G09RevA.02 11-Jun-2009

 ----------------------------------------------------
 # td=(nstates=15) cam-b3lyp/gen scf=qc int=ultrafine
 ----------------------------------------------------

 ---------------------------------------
 NA+br CAM-B3LYP def2-TZVPD Single point
 ---------------------------------------
 Symbolic Z-matrix:
 Charge =  0 Multiplicity = 1

                         Standard orientation:
 ---------------------------------------------------------------------
 Center     Atomic      Atomic             Coordinates (Angstroms)
 Number     Number       Type             X           Y           Z
 ---------------------------------------------------------------------
      1          6           0       -0.521889   -0.620647   -0.001999
      2          6           0       -1.703797    0.095340   -0.000970
      3          6           0       -1.703557    1.479862    0.000066
      4          6           0       -0.505670    2.149907   -0.001254
      5          6           0        0.717242    1.463381   -0.003908
      6          6           0        0.671549    0.061016   -0.003422
      7          1           0       -0.550173   -1.699164   -0.000382
      8          1           0       -2.642681    2.011559    0.001842
      9          1           0       -0.494307    3.232157   -0.003798
     10          7           0       -2.969163   -0.625386    0.001107
     11          8           0       -3.992481    0.029830    0.003994
     12          8           0       -2.931810   -1.839782   -0.000010
     13          7           0        1.892041    2.144365   -0.032776
     14          1           0        1.891358    3.134922    0.125475
     15          1           0        2.755898    1.651829    0.108618
     16         35           0        2.292881   -0.921648    0.000771
 ---------------------------------------------------------------------

 SCF Done:  E(RCAM-B3LYP) =  -3065.76930393     a.u. after    9 cycles

 Excitation energies and oscillator strengths:

 Excited State   1:      Singlet-A      4.1028 eV  302.19 nm  f=0.0000  <S**2>=0.000
      51 -> 54         0.66922
      51 -> 60         0.19047
 This state for optimization and/or second-order correction.
 Copying the excited state density for this state as the 1-particle RhoCI density.

 Excited State   2:      Singlet-A      4.3925 eV  282.26 nm  f=0.3236  <S**2>=0.000
      53 -> 54         0.68204

 Excited State   3:      Singlet-A      4.6409 eV  267.15 nm  f=0.0004  <S**2>=0.000
      48 -> 54         0.57818
      48 -> 60         0.16283
      50 -> 54         0.34646

 Excited State   4:      Singlet-A      4.7406 eV  261.54 nm  f=0.0272  <S**2>=0.000
      52 -> 54         0.43310
      52 -> 60        -0.10020
      53 -> 55         0.52817

 Excited State   5:      Singlet-A      5.3615 eV  231.25 nm  f=0.0008  <S**2>=0.000
      52 -> 56         0.18396
      52 -> 57        -0.11663
      52 -> 59        -0.11095
      53 -> 56         0.48138
      53 -> 57        -0.30687
      53 -> 58         0.10919
      53 -> 59        -0.21071
      53 -> 63         0.10649

 Excited State   6:      Singlet-A      5.4368 eV  228.04 nm  f=0.1163  <S**2>=0.000
      52 -> 54         0.54314
      53 -> 55        -0.43086

 Excited State   7:      Singlet-A      5.7455 eV  215.79 nm  f=0.0071  <S**2>=0.000
      53 -> 56         0.35383
      53 -> 57         0.57954

 Excited State   8:      Singlet-A      6.1956 eV  200.12 nm  f=0.1371  <S**2>=0.000
      52 -> 55         0.52929
      53 -> 59         0.10438
      53 -> 60         0.41841

 Excited State   9:      Singlet-A      6.3468 eV  195.35 nm  f=0.0012  <S**2>=0.000
      52 -> 56         0.39959
      52 -> 57        -0.34397
      52 -> 58         0.11258
      52 -> 59        -0.18072
      52 -> 63         0.10328
      53 -> 56        -0.24554
      53 -> 57         0.15898
      53 -> 59        -0.12256

 Excited State  10:      Singlet-A      6.4357 eV  192.65 nm  f=0.1499  <S**2>=0.000
      49 -> 54         0.68152

 Excited State  11:      Singlet-A      6.5530 eV  189.20 nm  f=0.0223  <S**2>=0.000
      52 -> 55        -0.12740
      52 -> 56        -0.17600
      52 -> 57        -0.10842
      53 -> 58         0.50838
      53 -> 59        -0.13022
      53 -> 60         0.13086
      53 -> 61        -0.12921
      53 -> 62        -0.26402
      53 -> 64         0.15079

 Excited State  12:      Singlet-A      6.6313 eV  186.97 nm  f=0.2013  <S**2>=0.000
      46 -> 54        -0.13376
      47 -> 54        -0.15050
      52 -> 55        -0.40076
      53 -> 59         0.26975
      53 -> 60         0.41344

 Excited State  13:      Singlet-A      6.7132 eV  184.69 nm  f=0.0187  <S**2>=0.000
      52 -> 56         0.22354
      53 -> 58         0.21578
      53 -> 59         0.49194
      53 -> 60        -0.24016
      53 -> 61        -0.10041
      53 -> 62        -0.12837
      53 -> 64         0.10528

 Excited State  14:      Singlet-A      6.7905 eV  182.59 nm  f=0.0003  <S**2>=0.000
      48 -> 54        -0.32654
      50 -> 54         0.56915
      50 -> 55         0.18078
      50 -> 60        -0.10598

 Excited State  15:      Singlet-A      6.8110 eV  182.03 nm  f=0.0156  <S**2>=0.000
      48 -> 56        -0.21608
      48 -> 57         0.13195
      48 -> 59         0.11521
      50 -> 56         0.46245
      50 -> 57        -0.28373
      50 -> 59        -0.23832

 The electronic state is 1-A.
 Alpha  occ. eigenvalues -- -482.94871 -62.58975 -56.40798 -56.40431 -56.40428
 Alpha  occ. eigenvalues --  -19.23175 -19.23169 -14.63415 -14.43208 -10.33823
 Alpha  occ. eigenvalues --  -10.32491 -10.30973 -10.28975 -10.28481 -10.27774
 Alpha  occ. eigenvalues --   -8.79103  -6.62245  -6.61099  -6.61089  -2.73888
 Alpha  occ. eigenvalues --   -2.73551  -2.73543  -2.72630  -2.72629  -1.32466
 Alpha  occ. eigenvalues --   -1.14463  -1.05398  -0.98297  -0.92441  -0.88419
 Alpha  occ. eigenvalues --   -0.84074  -0.78434  -0.72921  -0.67814  -0.64496
 Alpha  occ. eigenvalues --   -0.63567  -0.62312  -0.62134  -0.58823  -0.54597
 Alpha  occ. eigenvalues --   -0.54009  -0.51582  -0.51165  -0.50288  -0.44233
 Alpha  occ. eigenvalues --   -0.42402  -0.40648  -0.38774  -0.38191  -0.37705
 Alpha  occ. eigenvalues --   -0.36799  -0.33397  -0.29622
 Alpha virt. eigenvalues --   -0.04609  -0.00119   0.00986   0.01613   0.03562
 Alpha virt. eigenvalues --    0.04370   0.04568   0.05291   0.05508   0.05740
 Alpha virt. eigenvalues --    0.06958   0.08929   0.09340   0.10340   0.10519

 Mulliken atomic charges:
              1
     1  C   -0.334129
     2  C   -0.336839
     3  C   -0.456279
     4  C   -0.553816
     5  C    0.921147
     6  C    0.155894
     7  H    0.500851
     8  H    0.437312
     9  H    0.235634
    10  N    0.912844
    11  O   -0.587794
    12  O   -0.590155
    13  N   -0.394384
    14  H    0.194058
    15  H    0.159278
    16  Br  -0.263621
 Sum of Mulliken atomic charges =   0.00000

 Dipole moment (field-independent basis, Debye):
    X=              4.7704    Y=              4.2230    Z=              0.3937  Tot=              6.3832
 Quadrupole moment (field-independent basis, Debye-Ang):
   XX=            -88.8267   YY=            -67.2257   ZZ=            -77.6131
   XY=             -1.8459   XZ=              1.0995   YZ=              1.1563

 Normal termination of Gaussian 09 at Wed Mar  8 21:48:05 2023.
