 Gaussian 09, Revision A.02,
 Gaussian 09:  EM64L-G09RevA.02 11-Jun-2009

 ---------------------------------------------------
 # opt=tight freq cam-b3lyp/gen scf=qc int=ultrafine
 ---------------------------------------------------

 ----------------------------
 NA+ccl3 CAM-B3LYP def2-TZVPD
 ----------------------------
 Symbolic Z-matrix:
 Charge =  0 Multiplicity = 1

 SCF Done:  E(RCAM-B3LYP) =  -1910.24335106     a.u. after    9 cycles
 SCF Done:  E(RCAM-B3LYP) =  -1910.24915517     a.u. after    7 cycles
 SCF Done:  E(RCAM-B3LYP) =  -1910.25301296     a.u. after    7 cycles
 SCF Done:  E(RCAM-B3LYP) =  -1910.25353783     a.u. after   16 cycles
 SCF Done:  E(RCAM-B3LYP) =  -1910.25261782     a.u. after   16 cycles
 SCF Done:  E(RCAM-B3LYP) =  -1910.25375310     a.u. after   16 cycles
 SCF Done:  E(RCAM-B3LYP) =  -1910.25362054     a.u. after    5 cycles
 SCF Done:  E(RCAM-B3LYP) =  -1910.25383451     a.u. after    5 cycles
 SCF Done:  E(RCAM-B3LYP) =  -1910.25366023     a.u. after    5 cycles
 SCF Done:  E(RCAM-B3LYP) =  -1910.25391191     a.u. after    6 cycles
 SCF Done:  E(RCAM-B3LYP) =  -1910.25396647     a.u. after    3 cycles
 SCF Done:  E(RCAM-B3LYP) =  -1910.25396887     a.u. after    2 cycles
 SCF Done:  E(RCAM-B3LYP) =  -1910.25397200     a.u. after    3 cycles
 SCF Done:  E(RCAM-B3LYP) =  -1910.25397289     a.u. after    3 cycles
 SCF Done:  E(RCAM-B3LYP) =  -1910.25397299     a.u. after    2 cycles
 SCF Done:  E(RCAM-B3LYP) =  -1910.25397301     a.u. after    2 cycles
 SCF Done:  E(RCAM-B3LYP) =  -1910.25397301     a.u. after    2 cycles
 SCF Done:  E(RCAM-B3LYP) =  -1910.25397301     a.u. after    2 cycles
 SCF Done:  E(RCAM-B3LYP) =  -1910.25397301     a.u. after    2 cycles
 Optimization completed.
    -- Stationary point found.
 Normal termination of Gaussian 09 at Wed Feb 15 04:53:48 2023.

 ----------------------------------------------------------------------
 #N Geom=AllCheck Guess=TCheck SCRF=Check GenChk RCAM-B3LYP/ChkBas Freq
 ----------------------------------------------------------------------

 NA+ccl3 CAM-B3LYP def2-TZVPD
 ----------------------------
 Redundant internal coordinates taken from checkpoint file:
 /home/matheusmaximo/Gaussian/substituent/ccl3/ccl3_s0.chk
 Charge =  0 Multiplicity = 1

                         Standard orientation:
 ---------------------------------------------------------------------
 Center     Atomic      Atomic             Coordinates (Angstroms)
 Number     Number       Type             X           Y           Z
 ---------------------------------------------------------------------
      1          6           0        0.972843   -0.474497   -0.003778
      2          6           0        2.204534    0.140854   -0.001124
      3          6           0        2.315716    1.520845    0.002304
      4          6           0        1.171608    2.270493    0.001504
      5          6           0       -0.104142    1.681812   -0.001906
      6          6           0       -0.195156    0.267152   -0.003296
      7          1           0        0.944128   -1.550696   -0.005532
      8          1           0        3.291917    1.981236    0.004228
      9          1           0        1.237474    3.350818    0.004728
     10          7           0        3.407682   -0.679266   -0.002353
     11          8           0        4.479223   -0.105796    0.000497
     12          8           0        3.275789   -1.886842   -0.006238
     13          7           0       -1.180531    2.504814    0.018709
     14          1           0       -1.035640    3.492409   -0.083047
     15          1           0       -2.113178    2.165918   -0.120575
     16          6           0       -1.538364   -0.426868    0.003700
     17         17           0       -2.502825    0.042181   -1.443181
     18         17           0       -2.477442    0.024711    1.464914
     19         17           0       -1.426621   -2.193726   -0.013074
 ---------------------------------------------------------------------

 SCF Done:  E(RCAM-B3LYP) =  -1910.25397301     a.u. after    1 cycles

 The electronic state is 1-A.
 Alpha  occ. eigenvalues -- -101.62927-101.62922-101.62707 -19.23267 -19.23265
 Alpha  occ. eigenvalues --  -14.63507 -14.43534 -10.45721 -10.34419 -10.30947
 Alpha  occ. eigenvalues --  -10.30441 -10.29087 -10.28851 -10.27856  -9.56287
 Alpha  occ. eigenvalues --   -9.56286  -9.56063  -7.32627  -7.32603  -7.32390
 Alpha  occ. eigenvalues --   -7.31643  -7.31622  -7.31618  -7.31614  -7.31414
 Alpha  occ. eigenvalues --   -7.31392  -1.32564  -1.14561  -1.06837  -1.03995
 Alpha  occ. eigenvalues --   -0.98220  -0.93625  -0.93447  -0.89401  -0.87911
 Alpha  occ. eigenvalues --   -0.78710  -0.76644  -0.71916  -0.67542  -0.64870
 Alpha  occ. eigenvalues --   -0.63934  -0.62556  -0.62241  -0.58995  -0.57253
 Alpha  occ. eigenvalues --   -0.56551  -0.56128  -0.53865  -0.53477  -0.50811
 Alpha  occ. eigenvalues --   -0.50323  -0.45928  -0.44195  -0.43396  -0.42225
 Alpha  occ. eigenvalues --   -0.41361  -0.40021  -0.39509  -0.38587  -0.38462
 Alpha  occ. eigenvalues --   -0.38308  -0.36890  -0.35057  -0.30072
 Alpha virt. eigenvalues --   -0.04733  -0.01812  -0.00854   0.01239   0.02086
 Alpha virt. eigenvalues --    0.02230   0.03035   0.03679   0.04435   0.05185
 Alpha virt. eigenvalues --    0.05556   0.06173   0.06431   0.07602   0.08253

 Mulliken atomic charges:
              1
     1  C   -0.433761
     2  C   -0.540777
     3  C   -0.344426
     4  C   -0.578394
     5  C    0.952121
     6  C   -0.190843
     7  H    0.657934
     8  H    0.458006
     9  H    0.260999
    10  N    0.896215
    11  O   -0.588491
    12  O   -0.588351
    13  N   -0.340826
    14  H    0.184987
    15  H    0.141080
    16  C    0.608619
    17  Cl  -0.185600
    18  Cl  -0.166124
    19  Cl  -0.202366
 Sum of Mulliken atomic charges =   0.00000

 Dipole moment (field-independent basis, Debye):
    X=             -3.9013    Y=              4.8176    Z=             -0.2855  Tot=              6.2057
 Quadrupole moment (field-independent basis, Debye-Ang):
   XX=           -120.1043   YY=            -89.9619   ZZ=           -102.2204
   XY=              4.3330   XZ=              0.6000   YZ=             -0.9282

  Exact polarizability: 196.315 -10.398 162.842   0.017   0.147 104.002
 Approx polarizability: 229.505 -13.161 221.062  -0.100   0.537 143.862

                     1                      2                      3
                     A                      A                      A
 Frequencies --    42.7162                54.7558               102.0872
 Red. masses --    16.8131                14.0518                 4.7641
 Frc consts  --     0.0181                 0.0248                 0.0293
 IR Inten    --     2.2847                 0.2029                 0.3277

                     4                      5                      6
                     A                      A                      A
 Frequencies --   134.9067               139.1488               187.5985
 Red. masses --    14.1823                 5.8108                10.4899
 Frc consts  --     0.1521                 0.0663                 0.2175
 IR Inten    --     1.8747                 1.8484                 9.0210

                     7                      8                      9
                     A                      A                      A
 Frequencies --   200.2763               225.7564               258.6799
 Red. masses --     1.4155                 8.0862                11.3761
 Frc consts  --     0.0335                 0.2428                 0.4485
 IR Inten    --   152.2746                 3.1775                 1.3826

                    10                     11                     12
                     A                      A                      A
 Frequencies --   284.9295               285.4105               312.5437
 Red. masses --    14.9568                 9.5812                10.5133
 Frc consts  --     0.7154                 0.4598                 0.6051
 IR Inten    --     1.3785                 0.1148                 0.9222

                    13                     14                     15
                     A                      A                      A
 Frequencies --   357.4191               377.3320               403.8615
 Red. masses --     5.1777                 8.3909                12.5746
 Frc consts  --     0.3897                 0.7039                 1.2084
 IR Inten    --     0.0814                 0.5523                 0.7747

                    16                     17                     18
                     A                      A                      A
 Frequencies --   408.4223               479.0878               493.2803
 Red. masses --     1.0892                 4.6603                 3.3675
 Frc consts  --     0.1070                 0.6302                 0.4828
 IR Inten    --     8.1318                 1.1358                 0.0635

                    19                     20                     21
                     A                      A                      A
 Frequencies --   562.9345               570.5479               662.4040
 Red. masses --     4.2969                 5.1618                 8.6362
 Frc consts  --     0.8023                 0.9900                 2.2326
 IR Inten    --    15.6345                 3.8293                40.5551

                    22                     23                     24
                     A                      A                      A
 Frequencies --   670.9554               728.2327               793.1963
 Red. masses --     8.3954                 5.1767                 5.5502
 Frc consts  --     2.2268                 1.6175                 2.0574
 IR Inten    --    40.0028                98.1235                 0.5869

                    25                     26                     27
                     A                      A                      A
 Frequencies --   798.3412               820.8987               843.8717
 Red. masses --     3.9425                 8.5375                 6.2517
 Frc consts  --     1.4805                 3.3897                 2.6230
 IR Inten    --    70.0038                41.8111                 5.9028

                    28                     29                     30
                     A                      A                      A
 Frequencies --   866.6469               870.0726               985.0523
 Red. masses --     1.9986                 9.4350                 2.0899
 Frc consts  --     0.8844                 4.2083                 1.1948
 IR Inten    --    33.8736                36.5543                21.5452

                    31                     32                     33
                     A                      A                      A
 Frequencies --   985.3279              1016.3018              1064.5396
 Red. masses --     2.8536                 1.3486                 1.5666
 Frc consts  --     1.6323                 0.8207                 1.0460
 IR Inten    --    36.3862                 0.2657                 0.9156

                    34                     35                     36
                     A                      A                      A
 Frequencies --  1140.2222              1188.8308              1213.4725
 Red. masses --     1.7793                 1.2297                 6.3298
 Frc consts  --     1.3630                 1.0240                 5.4916
 IR Inten    --   100.5596                34.7922                38.7697

                    37                     38                     39
                     A                      A                      A
 Frequencies --  1310.9137              1350.5977              1381.3746
 Red. masses --     1.7314                 2.4951                 4.6652
 Frc consts  --     1.7531                 2.6816                 5.2449
 IR Inten    --    18.9692                49.8934                81.7748

                    40                     41                     42
                     A                      A                      A
 Frequencies --  1424.7022              1489.9731              1550.7557
 Red. masses --    11.3922                 4.9611                 2.8817
 Frc consts  --    13.6240                 6.4891                 4.0830
 IR Inten    --   542.8719                24.0331                65.8190

                    43                     44                     45
                     A                      A                      A
 Frequencies --  1617.2323              1661.2120              1681.2856
 Red. masses --     9.9506                 4.3481                 1.7040
 Frc consts  --    15.3335                 7.0696                 2.8380
 IR Inten    --   112.4819                92.5499               182.6872

                    46                     47                     48
                     A                      A                      A
 Frequencies --  1693.1308              3198.3037              3248.7728
 Red. masses --     3.7806                 1.0906                 1.0938
 Frc consts  --     6.3854                 6.5729                 6.8018
 IR Inten    --   253.9529                 5.8289                 4.2472

                    49                     50                     51
                     A                      A                      A
 Frequencies --  3275.8231              3632.3718              3743.7068
 Red. masses --     1.0899                 1.0460                 1.1041
 Frc consts  --     6.8907                 8.1311                 9.1171
 IR Inten    --    10.8698               105.9958                68.2469

 - Thermochemistry -
 -------------------
 Temperature   298.150 Kelvin.  Pressure   1.00000 Atm.
 Atom     1 has atomic number  6 and mass  12.00000

 Molecular mass:   253.94166 amu.
 Principal axes and moments of inertia in atomic units:
                           1         2         3
     Eigenvalues --  2254.986565447.927466646.54193
           X            1.00000  -0.00168   0.00028
           Y            0.00168   1.00000  -0.00157
           Z           -0.00028   0.00157   1.00000
 This molecule is an asymmetric top.
 Rotational symmetry number  1.
 Warning -- assumption of classical behavior for rotation
           may cause significant error
 Rotational temperatures (Kelvin)      0.03841     0.01590     0.01303
 Rotational constants (GHZ):           0.80033     0.33127     0.27153
 Zero-point vibrational energy     315755.6 (Joules/Mol)
                                   75.46740 (Kcal/Mol)
 Warning -- explicit consideration of  20 degrees of freedom as
           vibrations may cause significant error
 Vibrational temperatures:     61.46    78.78   146.88   194.10   200.20
          (Kelvin)            269.91   288.15   324.81   372.18   409.95
                              410.64   449.68   514.25   542.90   581.07
                              587.63   689.30   709.72   809.94   820.89
                              953.05   965.35  1047.76  1141.23  1148.63
                             1181.09  1214.14  1246.91  1251.84  1417.27
                             1417.67  1462.23  1531.63  1640.52  1710.46
                             1745.91  1886.11  1943.21  1987.49  2049.83
                             2143.74  2231.19  2326.83  2390.11  2418.99
                             2436.03  4601.64  4674.25  4713.17  5226.17
                             5386.35

 Zero-point correction=                           0.120265 (Hartree/Particle)
 Thermal correction to Energy=                    0.133400
 Thermal correction to Enthalpy=                  0.134344
 Thermal correction to Gibbs Free Energy=         0.079407
 Sum of electronic and zero-point Energies=          -1910.133708
 Sum of electronic and thermal Energies=             -1910.120573
 Sum of electronic and thermal Enthalpies=           -1910.119629
 Sum of electronic and thermal Free Energies=        -1910.174566

                     E (Thermal)             CV                S
                      KCal/Mol        Cal/Mol-Kelvin    Cal/Mol-Kelvin
 Total                   83.710             47.825            115.624
 Electronic               0.000              0.000              0.000
 Translational            0.889              2.981             42.496
 Rotational               0.889              2.981             32.768
 Vibrational             81.932             41.864             40.360
 Vibration     1          0.595              1.980              5.129
 Vibration     2          0.596              1.976              4.638
 Vibration     3          0.604              1.947              3.414
 Vibration     4          0.613              1.918              2.875
 Vibration     5          0.615              1.914              2.816
 Vibration     6          0.632              1.857              2.251
 Vibration     7          0.638              1.839              2.131
 Vibration     8          0.650              1.802              1.912
 Vibration     9          0.667              1.748              1.671
 Vibration    10          0.683              1.702              1.504
 Vibration    11          0.683              1.701              1.501
 Vibration    12          0.701              1.650              1.349
 Vibration    13          0.733              1.560              1.133
 Vibration    14          0.748              1.518              1.050
 Vibration    15          0.769              1.462              0.949
 Vibration    16          0.773              1.452              0.932
 Vibration    17          0.836              1.296              0.713
 Vibration    18          0.849              1.265              0.675
 Vibration    19          0.919              1.111              0.518
 Vibration    20          0.927              1.095              0.503

 Optimization completed.
    -- Stationary point found.
 Normal termination of Gaussian 09 at Thu Feb 16 07:14:48 2023.
